0.00000  1  0  4  1  cwnd_ 1.000 
0.00000  2  0  4  2  ack_ -1
V -t * -v 1.0a5 -a 0
A -t * -n 1 -p 0 -o 0x7fffffff -c 30 -a 1
A -t * -h 1 -m 1073741823 -s 0
c -t * -i 1 -n red
c -t * -i 2 -n blue
c -t * -i 3 -n green
n -t * -a 4 -s 4 -S UP -v hexagon -c black -i black
n -t * -a 0 -s 0 -S UP -v circle -c black -i black
n -t * -a 1 -s 1 -S UP -v circle -c black -i black
n -t * -a 2 -s 2 -S UP -v circle -c black -i black
n -t * -a 3 -s 3 -S UP -v box -c black -i black
l -t * -s 0 -d 3 -S UP -r 2500000 -D 0.050000000000000003 -c black -o down-right
l -t * -s 1 -d 3 -S UP -r 2500000 -D 0.050000000000000003 -c black -o right
l -t * -s 2 -d 3 -S UP -r 2500000 -D 0.050000000000000003 -c black -o up-right
l -t * -s 3 -d 4 -S UP -r 400000 -D 0.050000000000000003 -c black -o right
q -t * -s 4 -d 3 -a 0.5
q -t * -s 3 -d 4 -a 0.5
a -t 0 -s 1 -d 4 -n tcp2
a -t 0 -s 2 -d 4 -n tcp3
n -t 0 -s 0 -S DLABEL -l "Client1" -L ""
n -t 0 -s 1 -S DLABEL -l "Client2" -L ""
n -t 0 -s 2 -S DLABEL -l "Client3" -L ""
n -t 0 -s 3 -S DLABEL -l "Router" -L ""
n -t 0 -s 4 -S DLABEL -l "Server" -L ""
+ -t 1 -s 0 -d 3 -p tcp -e 40 -c 1 -i 0 -a 1 -x {0.0 4.0 0 ------- null}
- -t 1 -s 0 -d 3 -p tcp -e 40 -c 1 -i 0 -a 1 -x {0.0 4.0 0 ------- null}
h -t 1 -s 0 -d 3 -p tcp -e 40 -c 1 -i 0 -a 1 -x {0.0 4.0 -1 ------- null}
+ -t 1 -s 1 -d 3 -p tcp -e 40 -c 2 -i 1 -a 2 -x {1.0 4.1 0 ------- null}
- -t 1 -s 1 -d 3 -p tcp -e 40 -c 2 -i 1 -a 2 -x {1.0 4.1 0 ------- null}
h -t 1 -s 1 -d 3 -p tcp -e 40 -c 2 -i 1 -a 2 -x {1.0 4.1 -1 ------- null}
+ -t 1 -s 2 -d 3 -p tcp -e 40 -c 3 -i 2 -a 3 -x {2.0 4.2 0 ------- null}
- -t 1 -s 2 -d 3 -p tcp -e 40 -c 3 -i 2 -a 3 -x {2.0 4.2 0 ------- null}
h -t 1 -s 2 -d 3 -p tcp -e 40 -c 3 -i 2 -a 3 -x {2.0 4.2 -1 ------- null}
r -t 1.050128 -s 0 -d 3 -p tcp -e 40 -c 1 -i 0 -a 1 -x {0.0 4.0 0 ------- null}
+ -t 1.050128 -s 3 -d 4 -p tcp -e 40 -c 1 -i 0 -a 1 -x {0.0 4.0 0 ------- null}
- -t 1.050128 -s 3 -d 4 -p tcp -e 40 -c 1 -i 0 -a 1 -x {0.0 4.0 0 ------- null}
h -t 1.050128 -s 3 -d 4 -p tcp -e 40 -c 1 -i 0 -a 1 -x {0.0 4.0 -1 ------- null}
r -t 1.050128 -s 1 -d 3 -p tcp -e 40 -c 2 -i 1 -a 2 -x {1.0 4.1 0 ------- null}
+ -t 1.050128 -s 3 -d 4 -p tcp -e 40 -c 2 -i 1 -a 2 -x {1.0 4.1 0 ------- null}
r -t 1.050128 -s 2 -d 3 -p tcp -e 40 -c 3 -i 2 -a 3 -x {2.0 4.2 0 ------- null}
+ -t 1.050128 -s 3 -d 4 -p tcp -e 40 -c 3 -i 2 -a 3 -x {2.0 4.2 0 ------- null}
- -t 1.050928 -s 3 -d 4 -p tcp -e 40 -c 2 -i 1 -a 2 -x {1.0 4.1 0 ------- null}
h -t 1.050928 -s 3 -d 4 -p tcp -e 40 -c 2 -i 1 -a 2 -x {1.0 4.1 -1 ------- null}
- -t 1.051728 -s 3 -d 4 -p tcp -e 40 -c 3 -i 2 -a 3 -x {2.0 4.2 0 ------- null}
h -t 1.051728 -s 3 -d 4 -p tcp -e 40 -c 3 -i 2 -a 3 -x {2.0 4.2 -1 ------- null}
r -t 1.100928 -s 3 -d 4 -p tcp -e 40 -c 1 -i 0 -a 1 -x {0.0 4.0 0 ------- null}
+ -t 1.100928 -s 4 -d 3 -p ack -e 40 -c 1 -i 3 -a 1 -x {4.0 0.0 0 ------- null}
- -t 1.100928 -s 4 -d 3 -p ack -e 40 -c 1 -i 3 -a 1 -x {4.0 0.0 0 ------- null}
h -t 1.100928 -s 4 -d 3 -p ack -e 40 -c 1 -i 3 -a 1 -x {4.0 0.0 -1 ------- null}
r -t 1.101728 -s 3 -d 4 -p tcp -e 40 -c 2 -i 1 -a 2 -x {1.0 4.1 0 ------- null}
+ -t 1.101728 -s 4 -d 3 -p ack -e 40 -c 2 -i 4 -a 2 -x {4.1 1.0 0 ------- null}
- -t 1.101728 -s 4 -d 3 -p ack -e 40 -c 2 -i 4 -a 2 -x {4.1 1.0 0 ------- null}
h -t 1.101728 -s 4 -d 3 -p ack -e 40 -c 2 -i 4 -a 2 -x {4.1 1.0 -1 ------- null}
r -t 1.102528 -s 3 -d 4 -p tcp -e 40 -c 3 -i 2 -a 3 -x {2.0 4.2 0 ------- null}
+ -t 1.102528 -s 4 -d 3 -p ack -e 40 -c 3 -i 5 -a 3 -x {4.2 2.0 0 ------- null}
- -t 1.102528 -s 4 -d 3 -p ack -e 40 -c 3 -i 5 -a 3 -x {4.2 2.0 0 ------- null}
h -t 1.102528 -s 4 -d 3 -p ack -e 40 -c 3 -i 5 -a 3 -x {4.2 2.0 -1 ------- null}
r -t 1.151728 -s 4 -d 3 -p ack -e 40 -c 1 -i 3 -a 1 -x {4.0 0.0 0 ------- null}
+ -t 1.151728 -s 3 -d 0 -p ack -e 40 -c 1 -i 3 -a 1 -x {4.0 0.0 0 ------- null}
- -t 1.151728 -s 3 -d 0 -p ack -e 40 -c 1 -i 3 -a 1 -x {4.0 0.0 0 ------- null}
h -t 1.151728 -s 3 -d 0 -p ack -e 40 -c 1 -i 3 -a 1 -x {4.0 0.0 -1 ------- null}
r -t 1.152528 -s 4 -d 3 -p ack -e 40 -c 2 -i 4 -a 2 -x {4.1 1.0 0 ------- null}
+ -t 1.152528 -s 3 -d 1 -p ack -e 40 -c 2 -i 4 -a 2 -x {4.1 1.0 0 ------- null}
- -t 1.152528 -s 3 -d 1 -p ack -e 40 -c 2 -i 4 -a 2 -x {4.1 1.0 0 ------- null}
h -t 1.152528 -s 3 -d 1 -p ack -e 40 -c 2 -i 4 -a 2 -x {4.1 1.0 -1 ------- null}
r -t 1.153328 -s 4 -d 3 -p ack -e 40 -c 3 -i 5 -a 3 -x {4.2 2.0 0 ------- null}
+ -t 1.153328 -s 3 -d 2 -p ack -e 40 -c 3 -i 5 -a 3 -x {4.2 2.0 0 ------- null}
- -t 1.153328 -s 3 -d 2 -p ack -e 40 -c 3 -i 5 -a 3 -x {4.2 2.0 0 ------- null}
h -t 1.153328 -s 3 -d 2 -p ack -e 40 -c 3 -i 5 -a 3 -x {4.2 2.0 -1 ------- null}
r -t 1.201856 -s 3 -d 0 -p ack -e 40 -c 1 -i 3 -a 1 -x {4.0 0.0 0 ------- null}
+ -t 1.201856 -s 0 -d 3 -p tcp -e 1000 -c 1 -i 6 -a 1 -x {0.0 4.0 1 ------- null}
- -t 1.201856 -s 0 -d 3 -p tcp -e 1000 -c 1 -i 6 -a 1 -x {0.0 4.0 1 ------- null}
h -t 1.201856 -s 0 -d 3 -p tcp -e 1000 -c 1 -i 6 -a 1 -x {0.0 4.0 -1 ------- null}
+ -t 1.201856 -s 0 -d 3 -p tcp -e 1000 -c 1 -i 7 -a 1 -x {0.0 4.0 2 ------- null}
r -t 1.202656 -s 3 -d 1 -p ack -e 40 -c 2 -i 4 -a 2 -x {4.1 1.0 0 ------- null}
1.20266  1  0  4  1  cwnd_ 2.000 
+ -t 1.202656 -s 1 -d 3 -p tcp -e 1000 -c 2 -i 8 -a 2 -x {1.0 4.1 1 ------- null}
- -t 1.202656 -s 1 -d 3 -p tcp -e 1000 -c 2 -i 8 -a 2 -x {1.0 4.1 1 ------- null}
h -t 1.202656 -s 1 -d 3 -p tcp -e 1000 -c 2 -i 8 -a 2 -x {1.0 4.1 -1 ------- null}
+ -t 1.202656 -s 1 -d 3 -p tcp -e 1000 -c 2 -i 9 -a 2 -x {1.0 4.1 2 ------- null}
r -t 1.203456 -s 3 -d 2 -p ack -e 40 -c 3 -i 5 -a 3 -x {4.2 2.0 0 ------- null}
1.20346  2  0  4  2  ack_ 0
+ -t 1.203456 -s 2 -d 3 -p tcp -e 1040 -c 3 -i 10 -a 3 -x {2.0 4.2 1 ------- null}
- -t 1.203456 -s 2 -d 3 -p tcp -e 1040 -c 3 -i 10 -a 3 -x {2.0 4.2 1 ------- null}
h -t 1.203456 -s 2 -d 3 -p tcp -e 1040 -c 3 -i 10 -a 3 -x {2.0 4.2 -1 ------- null}
+ -t 1.203456 -s 2 -d 3 -p tcp -e 1040 -c 3 -i 11 -a 3 -x {2.0 4.2 2 ------- null}
- -t 1.205056 -s 0 -d 3 -p tcp -e 1000 -c 1 -i 7 -a 1 -x {0.0 4.0 2 ------- null}
h -t 1.205056 -s 0 -d 3 -p tcp -e 1000 -c 1 -i 7 -a 1 -x {0.0 4.0 -1 ------- null}
- -t 1.205856 -s 1 -d 3 -p tcp -e 1000 -c 2 -i 9 -a 2 -x {1.0 4.1 2 ------- null}
h -t 1.205856 -s 1 -d 3 -p tcp -e 1000 -c 2 -i 9 -a 2 -x {1.0 4.1 -1 ------- null}
- -t 1.206784 -s 2 -d 3 -p tcp -e 1040 -c 3 -i 11 -a 3 -x {2.0 4.2 2 ------- null}
h -t 1.206784 -s 2 -d 3 -p tcp -e 1040 -c 3 -i 11 -a 3 -x {2.0 4.2 -1 ------- null}
r -t 1.255056 -s 0 -d 3 -p tcp -e 1000 -c 1 -i 6 -a 1 -x {0.0 4.0 1 ------- null}
+ -t 1.255056 -s 3 -d 4 -p tcp -e 1000 -c 1 -i 6 -a 1 -x {0.0 4.0 1 ------- null}
- -t 1.255056 -s 3 -d 4 -p tcp -e 1000 -c 1 -i 6 -a 1 -x {0.0 4.0 1 ------- null}
h -t 1.255056 -s 3 -d 4 -p tcp -e 1000 -c 1 -i 6 -a 1 -x {0.0 4.0 -1 ------- null}
r -t 1.255856 -s 1 -d 3 -p tcp -e 1000 -c 2 -i 8 -a 2 -x {1.0 4.1 1 ------- null}
+ -t 1.255856 -s 3 -d 4 -p tcp -e 1000 -c 2 -i 8 -a 2 -x {1.0 4.1 1 ------- null}
r -t 1.256784 -s 2 -d 3 -p tcp -e 1040 -c 3 -i 10 -a 3 -x {2.0 4.2 1 ------- null}
+ -t 1.256784 -s 3 -d 4 -p tcp -e 1040 -c 3 -i 10 -a 3 -x {2.0 4.2 1 ------- null}
r -t 1.258256 -s 0 -d 3 -p tcp -e 1000 -c 1 -i 7 -a 1 -x {0.0 4.0 2 ------- null}
+ -t 1.258256 -s 3 -d 4 -p tcp -e 1000 -c 1 -i 7 -a 1 -x {0.0 4.0 2 ------- null}
r -t 1.259056 -s 1 -d 3 -p tcp -e 1000 -c 2 -i 9 -a 2 -x {1.0 4.1 2 ------- null}
+ -t 1.259056 -s 3 -d 4 -p tcp -e 1000 -c 2 -i 9 -a 2 -x {1.0 4.1 2 ------- null}
r -t 1.260112 -s 2 -d 3 -p tcp -e 1040 -c 3 -i 11 -a 3 -x {2.0 4.2 2 ------- null}
+ -t 1.260112 -s 3 -d 4 -p tcp -e 1040 -c 3 -i 11 -a 3 -x {2.0 4.2 2 ------- null}
- -t 1.275056 -s 3 -d 4 -p tcp -e 1000 -c 2 -i 8 -a 2 -x {1.0 4.1 1 ------- null}
h -t 1.275056 -s 3 -d 4 -p tcp -e 1000 -c 2 -i 8 -a 2 -x {1.0 4.1 -1 ------- null}
- -t 1.295056 -s 3 -d 4 -p tcp -e 1040 -c 3 -i 10 -a 3 -x {2.0 4.2 1 ------- null}
h -t 1.295056 -s 3 -d 4 -p tcp -e 1040 -c 3 -i 10 -a 3 -x {2.0 4.2 -1 ------- null}
- -t 1.315856 -s 3 -d 4 -p tcp -e 1000 -c 1 -i 7 -a 1 -x {0.0 4.0 2 ------- null}
h -t 1.315856 -s 3 -d 4 -p tcp -e 1000 -c 1 -i 7 -a 1 -x {0.0 4.0 -1 ------- null}
r -t 1.325056 -s 3 -d 4 -p tcp -e 1000 -c 1 -i 6 -a 1 -x {0.0 4.0 1 ------- null}
+ -t 1.325056 -s 4 -d 3 -p ack -e 40 -c 1 -i 12 -a 1 -x {4.0 0.0 1 ------- null}
- -t 1.325056 -s 4 -d 3 -p ack -e 40 -c 1 -i 12 -a 1 -x {4.0 0.0 1 ------- null}
h -t 1.325056 -s 4 -d 3 -p ack -e 40 -c 1 -i 12 -a 1 -x {4.0 0.0 -1 ------- null}
- -t 1.335856 -s 3 -d 4 -p tcp -e 1000 -c 2 -i 9 -a 2 -x {1.0 4.1 2 ------- null}
h -t 1.335856 -s 3 -d 4 -p tcp -e 1000 -c 2 -i 9 -a 2 -x {1.0 4.1 -1 ------- null}
r -t 1.345056 -s 3 -d 4 -p tcp -e 1000 -c 2 -i 8 -a 2 -x {1.0 4.1 1 ------- null}
+ -t 1.345056 -s 4 -d 3 -p ack -e 40 -c 2 -i 13 -a 2 -x {4.1 1.0 1 ------- null}
- -t 1.345056 -s 4 -d 3 -p ack -e 40 -c 2 -i 13 -a 2 -x {4.1 1.0 1 ------- null}
h -t 1.345056 -s 4 -d 3 -p ack -e 40 -c 2 -i 13 -a 2 -x {4.1 1.0 -1 ------- null}
- -t 1.355856 -s 3 -d 4 -p tcp -e 1040 -c 3 -i 11 -a 3 -x {2.0 4.2 2 ------- null}
h -t 1.355856 -s 3 -d 4 -p tcp -e 1040 -c 3 -i 11 -a 3 -x {2.0 4.2 -1 ------- null}
r -t 1.365856 -s 3 -d 4 -p tcp -e 1040 -c 3 -i 10 -a 3 -x {2.0 4.2 1 ------- null}
+ -t 1.365856 -s 4 -d 3 -p ack -e 40 -c 3 -i 14 -a 3 -x {4.2 2.0 1 ------- null}
- -t 1.365856 -s 4 -d 3 -p ack -e 40 -c 3 -i 14 -a 3 -x {4.2 2.0 1 ------- null}
h -t 1.365856 -s 4 -d 3 -p ack -e 40 -c 3 -i 14 -a 3 -x {4.2 2.0 -1 ------- null}
r -t 1.375856 -s 4 -d 3 -p ack -e 40 -c 1 -i 12 -a 1 -x {4.0 0.0 1 ------- null}
+ -t 1.375856 -s 3 -d 0 -p ack -e 40 -c 1 -i 12 -a 1 -x {4.0 0.0 1 ------- null}
- -t 1.375856 -s 3 -d 0 -p ack -e 40 -c 1 -i 12 -a 1 -x {4.0 0.0 1 ------- null}
h -t 1.375856 -s 3 -d 0 -p ack -e 40 -c 1 -i 12 -a 1 -x {4.0 0.0 -1 ------- null}
r -t 1.385856 -s 3 -d 4 -p tcp -e 1000 -c 1 -i 7 -a 1 -x {0.0 4.0 2 ------- null}
+ -t 1.385856 -s 4 -d 3 -p ack -e 40 -c 1 -i 15 -a 1 -x {4.0 0.0 2 ------- null}
- -t 1.385856 -s 4 -d 3 -p ack -e 40 -c 1 -i 15 -a 1 -x {4.0 0.0 2 ------- null}
h -t 1.385856 -s 4 -d 3 -p ack -e 40 -c 1 -i 15 -a 1 -x {4.0 0.0 -1 ------- null}
r -t 1.395856 -s 4 -d 3 -p ack -e 40 -c 2 -i 13 -a 2 -x {4.1 1.0 1 ------- null}
+ -t 1.395856 -s 3 -d 1 -p ack -e 40 -c 2 -i 13 -a 2 -x {4.1 1.0 1 ------- null}
- -t 1.395856 -s 3 -d 1 -p ack -e 40 -c 2 -i 13 -a 2 -x {4.1 1.0 1 ------- null}
h -t 1.395856 -s 3 -d 1 -p ack -e 40 -c 2 -i 13 -a 2 -x {4.1 1.0 -1 ------- null}
r -t 1.405856 -s 3 -d 4 -p tcp -e 1000 -c 2 -i 9 -a 2 -x {1.0 4.1 2 ------- null}
+ -t 1.405856 -s 4 -d 3 -p ack -e 40 -c 2 -i 16 -a 2 -x {4.1 1.0 2 ------- null}
- -t 1.405856 -s 4 -d 3 -p ack -e 40 -c 2 -i 16 -a 2 -x {4.1 1.0 2 ------- null}
h -t 1.405856 -s 4 -d 3 -p ack -e 40 -c 2 -i 16 -a 2 -x {4.1 1.0 -1 ------- null}
r -t 1.416656 -s 4 -d 3 -p ack -e 40 -c 3 -i 14 -a 3 -x {4.2 2.0 1 ------- null}
+ -t 1.416656 -s 3 -d 2 -p ack -e 40 -c 3 -i 14 -a 3 -x {4.2 2.0 1 ------- null}
- -t 1.416656 -s 3 -d 2 -p ack -e 40 -c 3 -i 14 -a 3 -x {4.2 2.0 1 ------- null}
h -t 1.416656 -s 3 -d 2 -p ack -e 40 -c 3 -i 14 -a 3 -x {4.2 2.0 -1 ------- null}
r -t 1.425984 -s 3 -d 0 -p ack -e 40 -c 1 -i 12 -a 1 -x {4.0 0.0 1 ------- null}
+ -t 1.425984 -s 0 -d 3 -p tcp -e 1000 -c 1 -i 17 -a 1 -x {0.0 4.0 3 ------- null}
- -t 1.425984 -s 0 -d 3 -p tcp -e 1000 -c 1 -i 17 -a 1 -x {0.0 4.0 3 ------- null}
h -t 1.425984 -s 0 -d 3 -p tcp -e 1000 -c 1 -i 17 -a 1 -x {0.0 4.0 -1 ------- null}
+ -t 1.425984 -s 0 -d 3 -p tcp -e 1000 -c 1 -i 18 -a 1 -x {0.0 4.0 4 ------- null}
r -t 1.426656 -s 3 -d 4 -p tcp -e 1040 -c 3 -i 11 -a 3 -x {2.0 4.2 2 ------- null}
+ -t 1.426656 -s 4 -d 3 -p ack -e 40 -c 3 -i 19 -a 3 -x {4.2 2.0 2 ------- null}
- -t 1.426656 -s 4 -d 3 -p ack -e 40 -c 3 -i 19 -a 3 -x {4.2 2.0 2 ------- null}
h -t 1.426656 -s 4 -d 3 -p ack -e 40 -c 3 -i 19 -a 3 -x {4.2 2.0 -1 ------- null}
- -t 1.429184 -s 0 -d 3 -p tcp -e 1000 -c 1 -i 18 -a 1 -x {0.0 4.0 4 ------- null}
h -t 1.429184 -s 0 -d 3 -p tcp -e 1000 -c 1 -i 18 -a 1 -x {0.0 4.0 -1 ------- null}
r -t 1.436656 -s 4 -d 3 -p ack -e 40 -c 1 -i 15 -a 1 -x {4.0 0.0 2 ------- null}
+ -t 1.436656 -s 3 -d 0 -p ack -e 40 -c 1 -i 15 -a 1 -x {4.0 0.0 2 ------- null}
- -t 1.436656 -s 3 -d 0 -p ack -e 40 -c 1 -i 15 -a 1 -x {4.0 0.0 2 ------- null}
h -t 1.436656 -s 3 -d 0 -p ack -e 40 -c 1 -i 15 -a 1 -x {4.0 0.0 -1 ------- null}
r -t 1.445984 -s 3 -d 1 -p ack -e 40 -c 2 -i 13 -a 2 -x {4.1 1.0 1 ------- null}
1.44598  1  0  4  1  cwnd_ 3.000 
+ -t 1.445984 -s 1 -d 3 -p tcp -e 1000 -c 2 -i 20 -a 2 -x {1.0 4.1 3 ------- null}
- -t 1.445984 -s 1 -d 3 -p tcp -e 1000 -c 2 -i 20 -a 2 -x {1.0 4.1 3 ------- null}
h -t 1.445984 -s 1 -d 3 -p tcp -e 1000 -c 2 -i 20 -a 2 -x {1.0 4.1 -1 ------- null}
+ -t 1.445984 -s 1 -d 3 -p tcp -e 1000 -c 2 -i 21 -a 2 -x {1.0 4.1 4 ------- null}
- -t 1.449184 -s 1 -d 3 -p tcp -e 1000 -c 2 -i 21 -a 2 -x {1.0 4.1 4 ------- null}
h -t 1.449184 -s 1 -d 3 -p tcp -e 1000 -c 2 -i 21 -a 2 -x {1.0 4.1 -1 ------- null}
r -t 1.456656 -s 4 -d 3 -p ack -e 40 -c 2 -i 16 -a 2 -x {4.1 1.0 2 ------- null}
+ -t 1.456656 -s 3 -d 1 -p ack -e 40 -c 2 -i 16 -a 2 -x {4.1 1.0 2 ------- null}
- -t 1.456656 -s 3 -d 1 -p ack -e 40 -c 2 -i 16 -a 2 -x {4.1 1.0 2 ------- null}
h -t 1.456656 -s 3 -d 1 -p ack -e 40 -c 2 -i 16 -a 2 -x {4.1 1.0 -1 ------- null}
r -t 1.466784 -s 3 -d 2 -p ack -e 40 -c 3 -i 14 -a 3 -x {4.2 2.0 1 ------- null}
1.46678  2  0  4  2  ack_ 1
+ -t 1.466784 -s 2 -d 3 -p tcp -e 1040 -c 3 -i 22 -a 3 -x {2.0 4.2 3 ------- null}
- -t 1.466784 -s 2 -d 3 -p tcp -e 1040 -c 3 -i 22 -a 3 -x {2.0 4.2 3 ------- null}
h -t 1.466784 -s 2 -d 3 -p tcp -e 1040 -c 3 -i 22 -a 3 -x {2.0 4.2 -1 ------- null}
+ -t 1.466784 -s 2 -d 3 -p tcp -e 1040 -c 3 -i 23 -a 3 -x {2.0 4.2 4 ------- null}
- -t 1.470112 -s 2 -d 3 -p tcp -e 1040 -c 3 -i 23 -a 3 -x {2.0 4.2 4 ------- null}
h -t 1.470112 -s 2 -d 3 -p tcp -e 1040 -c 3 -i 23 -a 3 -x {2.0 4.2 -1 ------- null}
r -t 1.477456 -s 4 -d 3 -p ack -e 40 -c 3 -i 19 -a 3 -x {4.2 2.0 2 ------- null}
+ -t 1.477456 -s 3 -d 2 -p ack -e 40 -c 3 -i 19 -a 3 -x {4.2 2.0 2 ------- null}
- -t 1.477456 -s 3 -d 2 -p ack -e 40 -c 3 -i 19 -a 3 -x {4.2 2.0 2 ------- null}
h -t 1.477456 -s 3 -d 2 -p ack -e 40 -c 3 -i 19 -a 3 -x {4.2 2.0 -1 ------- null}
r -t 1.479184 -s 0 -d 3 -p tcp -e 1000 -c 1 -i 17 -a 1 -x {0.0 4.0 3 ------- null}
+ -t 1.479184 -s 3 -d 4 -p tcp -e 1000 -c 1 -i 17 -a 1 -x {0.0 4.0 3 ------- null}
- -t 1.479184 -s 3 -d 4 -p tcp -e 1000 -c 1 -i 17 -a 1 -x {0.0 4.0 3 ------- null}
h -t 1.479184 -s 3 -d 4 -p tcp -e 1000 -c 1 -i 17 -a 1 -x {0.0 4.0 -1 ------- null}
r -t 1.482384 -s 0 -d 3 -p tcp -e 1000 -c 1 -i 18 -a 1 -x {0.0 4.0 4 ------- null}
+ -t 1.482384 -s 3 -d 4 -p tcp -e 1000 -c 1 -i 18 -a 1 -x {0.0 4.0 4 ------- null}
r -t 1.486784 -s 3 -d 0 -p ack -e 40 -c 1 -i 15 -a 1 -x {4.0 0.0 2 ------- null}
+ -t 1.486784 -s 0 -d 3 -p tcp -e 1000 -c 1 -i 24 -a 1 -x {0.0 4.0 5 ------- null}
- -t 1.486784 -s 0 -d 3 -p tcp -e 1000 -c 1 -i 24 -a 1 -x {0.0 4.0 5 ------- null}
h -t 1.486784 -s 0 -d 3 -p tcp -e 1000 -c 1 -i 24 -a 1 -x {0.0 4.0 -1 ------- null}
+ -t 1.486784 -s 0 -d 3 -p tcp -e 1000 -c 1 -i 25 -a 1 -x {0.0 4.0 6 ------- null}
- -t 1.489984 -s 0 -d 3 -p tcp -e 1000 -c 1 -i 25 -a 1 -x {0.0 4.0 6 ------- null}
h -t 1.489984 -s 0 -d 3 -p tcp -e 1000 -c 1 -i 25 -a 1 -x {0.0 4.0 -1 ------- null}
r -t 1.499184 -s 1 -d 3 -p tcp -e 1000 -c 2 -i 20 -a 2 -x {1.0 4.1 3 ------- null}
+ -t 1.499184 -s 3 -d 4 -p tcp -e 1000 -c 2 -i 20 -a 2 -x {1.0 4.1 3 ------- null}
- -t 1.499184 -s 3 -d 4 -p tcp -e 1000 -c 1 -i 18 -a 1 -x {0.0 4.0 4 ------- null}
h -t 1.499184 -s 3 -d 4 -p tcp -e 1000 -c 1 -i 18 -a 1 -x {0.0 4.0 -1 ------- null}
r -t 1.502384 -s 1 -d 3 -p tcp -e 1000 -c 2 -i 21 -a 2 -x {1.0 4.1 4 ------- null}
+ -t 1.502384 -s 3 -d 4 -p tcp -e 1000 -c 2 -i 21 -a 2 -x {1.0 4.1 4 ------- null}
r -t 1.506784 -s 3 -d 1 -p ack -e 40 -c 2 -i 16 -a 2 -x {4.1 1.0 2 ------- null}
1.50678  1  0  4  1  cwnd_ 4.000 
+ -t 1.506784 -s 1 -d 3 -p tcp -e 1000 -c 2 -i 26 -a 2 -x {1.0 4.1 5 ------- null}
- -t 1.506784 -s 1 -d 3 -p tcp -e 1000 -c 2 -i 26 -a 2 -x {1.0 4.1 5 ------- null}
h -t 1.506784 -s 1 -d 3 -p tcp -e 1000 -c 2 -i 26 -a 2 -x {1.0 4.1 -1 ------- null}
+ -t 1.506784 -s 1 -d 3 -p tcp -e 1000 -c 2 -i 27 -a 2 -x {1.0 4.1 6 ------- null}
- -t 1.509984 -s 1 -d 3 -p tcp -e 1000 -c 2 -i 27 -a 2 -x {1.0 4.1 6 ------- null}
h -t 1.509984 -s 1 -d 3 -p tcp -e 1000 -c 2 -i 27 -a 2 -x {1.0 4.1 -1 ------- null}
- -t 1.519184 -s 3 -d 4 -p tcp -e 1000 -c 2 -i 20 -a 2 -x {1.0 4.1 3 ------- null}
h -t 1.519184 -s 3 -d 4 -p tcp -e 1000 -c 2 -i 20 -a 2 -x {1.0 4.1 -1 ------- null}
r -t 1.520112 -s 2 -d 3 -p tcp -e 1040 -c 3 -i 22 -a 3 -x {2.0 4.2 3 ------- null}
+ -t 1.520112 -s 3 -d 4 -p tcp -e 1040 -c 3 -i 22 -a 3 -x {2.0 4.2 3 ------- null}
r -t 1.52344 -s 2 -d 3 -p tcp -e 1040 -c 3 -i 23 -a 3 -x {2.0 4.2 4 ------- null}
+ -t 1.52344 -s 3 -d 4 -p tcp -e 1040 -c 3 -i 23 -a 3 -x {2.0 4.2 4 ------- null}
r -t 1.527584 -s 3 -d 2 -p ack -e 40 -c 3 -i 19 -a 3 -x {4.2 2.0 2 ------- null}
1.52758  2  0  4  2  ack_ 2
+ -t 1.527584 -s 2 -d 3 -p tcp -e 1040 -c 3 -i 28 -a 3 -x {2.0 4.2 5 ------- null}
- -t 1.527584 -s 2 -d 3 -p tcp -e 1040 -c 3 -i 28 -a 3 -x {2.0 4.2 5 ------- null}
h -t 1.527584 -s 2 -d 3 -p tcp -e 1040 -c 3 -i 28 -a 3 -x {2.0 4.2 -1 ------- null}
+ -t 1.527584 -s 2 -d 3 -p tcp -e 1040 -c 3 -i 29 -a 3 -x {2.0 4.2 6 ------- null}
- -t 1.530912 -s 2 -d 3 -p tcp -e 1040 -c 3 -i 29 -a 3 -x {2.0 4.2 6 ------- null}
h -t 1.530912 -s 2 -d 3 -p tcp -e 1040 -c 3 -i 29 -a 3 -x {2.0 4.2 -1 ------- null}
- -t 1.539184 -s 3 -d 4 -p tcp -e 1000 -c 2 -i 21 -a 2 -x {1.0 4.1 4 ------- null}
h -t 1.539184 -s 3 -d 4 -p tcp -e 1000 -c 2 -i 21 -a 2 -x {1.0 4.1 -1 ------- null}
r -t 1.539984 -s 0 -d 3 -p tcp -e 1000 -c 1 -i 24 -a 1 -x {0.0 4.0 5 ------- null}
+ -t 1.539984 -s 3 -d 4 -p tcp -e 1000 -c 1 -i 24 -a 1 -x {0.0 4.0 5 ------- null}
r -t 1.543184 -s 0 -d 3 -p tcp -e 1000 -c 1 -i 25 -a 1 -x {0.0 4.0 6 ------- null}
+ -t 1.543184 -s 3 -d 4 -p tcp -e 1000 -c 1 -i 25 -a 1 -x {0.0 4.0 6 ------- null}
r -t 1.549184 -s 3 -d 4 -p tcp -e 1000 -c 1 -i 17 -a 1 -x {0.0 4.0 3 ------- null}
+ -t 1.549184 -s 4 -d 3 -p ack -e 40 -c 1 -i 30 -a 1 -x {4.0 0.0 3 ------- null}
- -t 1.549184 -s 4 -d 3 -p ack -e 40 -c 1 -i 30 -a 1 -x {4.0 0.0 3 ------- null}
h -t 1.549184 -s 4 -d 3 -p ack -e 40 -c 1 -i 30 -a 1 -x {4.0 0.0 -1 ------- null}
- -t 1.559184 -s 3 -d 4 -p tcp -e 1040 -c 3 -i 22 -a 3 -x {2.0 4.2 3 ------- null}
h -t 1.559184 -s 3 -d 4 -p tcp -e 1040 -c 3 -i 22 -a 3 -x {2.0 4.2 -1 ------- null}
r -t 1.559984 -s 1 -d 3 -p tcp -e 1000 -c 2 -i 26 -a 2 -x {1.0 4.1 5 ------- null}
+ -t 1.559984 -s 3 -d 4 -p tcp -e 1000 -c 2 -i 26 -a 2 -x {1.0 4.1 5 ------- null}
r -t 1.563184 -s 1 -d 3 -p tcp -e 1000 -c 2 -i 27 -a 2 -x {1.0 4.1 6 ------- null}
+ -t 1.563184 -s 3 -d 4 -p tcp -e 1000 -c 2 -i 27 -a 2 -x {1.0 4.1 6 ------- null}
r -t 1.569184 -s 3 -d 4 -p tcp -e 1000 -c 1 -i 18 -a 1 -x {0.0 4.0 4 ------- null}
+ -t 1.569184 -s 4 -d 3 -p ack -e 40 -c 1 -i 31 -a 1 -x {4.0 0.0 4 ------- null}
- -t 1.569184 -s 4 -d 3 -p ack -e 40 -c 1 -i 31 -a 1 -x {4.0 0.0 4 ------- null}
h -t 1.569184 -s 4 -d 3 -p ack -e 40 -c 1 -i 31 -a 1 -x {4.0 0.0 -1 ------- null}
- -t 1.579984 -s 3 -d 4 -p tcp -e 1040 -c 3 -i 23 -a 3 -x {2.0 4.2 4 ------- null}
h -t 1.579984 -s 3 -d 4 -p tcp -e 1040 -c 3 -i 23 -a 3 -x {2.0 4.2 -1 ------- null}
r -t 1.580912 -s 2 -d 3 -p tcp -e 1040 -c 3 -i 28 -a 3 -x {2.0 4.2 5 ------- null}
+ -t 1.580912 -s 3 -d 4 -p tcp -e 1040 -c 3 -i 28 -a 3 -x {2.0 4.2 5 ------- null}
r -t 1.58424 -s 2 -d 3 -p tcp -e 1040 -c 3 -i 29 -a 3 -x {2.0 4.2 6 ------- null}
+ -t 1.58424 -s 3 -d 4 -p tcp -e 1040 -c 3 -i 29 -a 3 -x {2.0 4.2 6 ------- null}
r -t 1.589184 -s 3 -d 4 -p tcp -e 1000 -c 2 -i 20 -a 2 -x {1.0 4.1 3 ------- null}
+ -t 1.589184 -s 4 -d 3 -p ack -e 40 -c 2 -i 32 -a 2 -x {4.1 1.0 3 ------- null}
- -t 1.589184 -s 4 -d 3 -p ack -e 40 -c 2 -i 32 -a 2 -x {4.1 1.0 3 ------- null}
h -t 1.589184 -s 4 -d 3 -p ack -e 40 -c 2 -i 32 -a 2 -x {4.1 1.0 -1 ------- null}
r -t 1.599984 -s 4 -d 3 -p ack -e 40 -c 1 -i 30 -a 1 -x {4.0 0.0 3 ------- null}
+ -t 1.599984 -s 3 -d 0 -p ack -e 40 -c 1 -i 30 -a 1 -x {4.0 0.0 3 ------- null}
- -t 1.599984 -s 3 -d 0 -p ack -e 40 -c 1 -i 30 -a 1 -x {4.0 0.0 3 ------- null}
h -t 1.599984 -s 3 -d 0 -p ack -e 40 -c 1 -i 30 -a 1 -x {4.0 0.0 -1 ------- null}
- -t 1.600784 -s 3 -d 4 -p tcp -e 1000 -c 1 -i 24 -a 1 -x {0.0 4.0 5 ------- null}
h -t 1.600784 -s 3 -d 4 -p tcp -e 1000 -c 1 -i 24 -a 1 -x {0.0 4.0 -1 ------- null}
r -t 1.609184 -s 3 -d 4 -p tcp -e 1000 -c 2 -i 21 -a 2 -x {1.0 4.1 4 ------- null}
+ -t 1.609184 -s 4 -d 3 -p ack -e 40 -c 2 -i 33 -a 2 -x {4.1 1.0 4 ------- null}
- -t 1.609184 -s 4 -d 3 -p ack -e 40 -c 2 -i 33 -a 2 -x {4.1 1.0 4 ------- null}
h -t 1.609184 -s 4 -d 3 -p ack -e 40 -c 2 -i 33 -a 2 -x {4.1 1.0 -1 ------- null}
r -t 1.619984 -s 4 -d 3 -p ack -e 40 -c 1 -i 31 -a 1 -x {4.0 0.0 4 ------- null}
+ -t 1.619984 -s 3 -d 0 -p ack -e 40 -c 1 -i 31 -a 1 -x {4.0 0.0 4 ------- null}
- -t 1.619984 -s 3 -d 0 -p ack -e 40 -c 1 -i 31 -a 1 -x {4.0 0.0 4 ------- null}
h -t 1.619984 -s 3 -d 0 -p ack -e 40 -c 1 -i 31 -a 1 -x {4.0 0.0 -1 ------- null}
- -t 1.620784 -s 3 -d 4 -p tcp -e 1000 -c 1 -i 25 -a 1 -x {0.0 4.0 6 ------- null}
h -t 1.620784 -s 3 -d 4 -p tcp -e 1000 -c 1 -i 25 -a 1 -x {0.0 4.0 -1 ------- null}
r -t 1.629984 -s 3 -d 4 -p tcp -e 1040 -c 3 -i 22 -a 3 -x {2.0 4.2 3 ------- null}
+ -t 1.629984 -s 4 -d 3 -p ack -e 40 -c 3 -i 34 -a 3 -x {4.2 2.0 3 ------- null}
- -t 1.629984 -s 4 -d 3 -p ack -e 40 -c 3 -i 34 -a 3 -x {4.2 2.0 3 ------- null}
h -t 1.629984 -s 4 -d 3 -p ack -e 40 -c 3 -i 34 -a 3 -x {4.2 2.0 -1 ------- null}
r -t 1.639984 -s 4 -d 3 -p ack -e 40 -c 2 -i 32 -a 2 -x {4.1 1.0 3 ------- null}
+ -t 1.639984 -s 3 -d 1 -p ack -e 40 -c 2 -i 32 -a 2 -x {4.1 1.0 3 ------- null}
- -t 1.639984 -s 3 -d 1 -p ack -e 40 -c 2 -i 32 -a 2 -x {4.1 1.0 3 ------- null}
h -t 1.639984 -s 3 -d 1 -p ack -e 40 -c 2 -i 32 -a 2 -x {4.1 1.0 -1 ------- null}
- -t 1.640784 -s 3 -d 4 -p tcp -e 1000 -c 2 -i 26 -a 2 -x {1.0 4.1 5 ------- null}
h -t 1.640784 -s 3 -d 4 -p tcp -e 1000 -c 2 -i 26 -a 2 -x {1.0 4.1 -1 ------- null}
r -t 1.650112 -s 3 -d 0 -p ack -e 40 -c 1 -i 30 -a 1 -x {4.0 0.0 3 ------- null}
+ -t 1.650112 -s 0 -d 3 -p tcp -e 1000 -c 1 -i 35 -a 1 -x {0.0 4.0 7 ------- null}
- -t 1.650112 -s 0 -d 3 -p tcp -e 1000 -c 1 -i 35 -a 1 -x {0.0 4.0 7 ------- null}
h -t 1.650112 -s 0 -d 3 -p tcp -e 1000 -c 1 -i 35 -a 1 -x {0.0 4.0 -1 ------- null}
+ -t 1.650112 -s 0 -d 3 -p tcp -e 1000 -c 1 -i 36 -a 1 -x {0.0 4.0 8 ------- null}
r -t 1.650784 -s 3 -d 4 -p tcp -e 1040 -c 3 -i 23 -a 3 -x {2.0 4.2 4 ------- null}
+ -t 1.650784 -s 4 -d 3 -p ack -e 40 -c 3 -i 37 -a 3 -x {4.2 2.0 4 ------- null}
- -t 1.650784 -s 4 -d 3 -p ack -e 40 -c 3 -i 37 -a 3 -x {4.2 2.0 4 ------- null}
h -t 1.650784 -s 4 -d 3 -p ack -e 40 -c 3 -i 37 -a 3 -x {4.2 2.0 -1 ------- null}
- -t 1.653312 -s 0 -d 3 -p tcp -e 1000 -c 1 -i 36 -a 1 -x {0.0 4.0 8 ------- null}
h -t 1.653312 -s 0 -d 3 -p tcp -e 1000 -c 1 -i 36 -a 1 -x {0.0 4.0 -1 ------- null}
r -t 1.659984 -s 4 -d 3 -p ack -e 40 -c 2 -i 33 -a 2 -x {4.1 1.0 4 ------- null}
+ -t 1.659984 -s 3 -d 1 -p ack -e 40 -c 2 -i 33 -a 2 -x {4.1 1.0 4 ------- null}
- -t 1.659984 -s 3 -d 1 -p ack -e 40 -c 2 -i 33 -a 2 -x {4.1 1.0 4 ------- null}
h -t 1.659984 -s 3 -d 1 -p ack -e 40 -c 2 -i 33 -a 2 -x {4.1 1.0 -1 ------- null}
- -t 1.660784 -s 3 -d 4 -p tcp -e 1000 -c 2 -i 27 -a 2 -x {1.0 4.1 6 ------- null}
h -t 1.660784 -s 3 -d 4 -p tcp -e 1000 -c 2 -i 27 -a 2 -x {1.0 4.1 -1 ------- null}
r -t 1.670112 -s 3 -d 0 -p ack -e 40 -c 1 -i 31 -a 1 -x {4.0 0.0 4 ------- null}
+ -t 1.670112 -s 0 -d 3 -p tcp -e 1000 -c 1 -i 38 -a 1 -x {0.0 4.0 9 ------- null}
- -t 1.670112 -s 0 -d 3 -p tcp -e 1000 -c 1 -i 38 -a 1 -x {0.0 4.0 9 ------- null}
h -t 1.670112 -s 0 -d 3 -p tcp -e 1000 -c 1 -i 38 -a 1 -x {0.0 4.0 -1 ------- null}
+ -t 1.670112 -s 0 -d 3 -p tcp -e 1000 -c 1 -i 39 -a 1 -x {0.0 4.0 10 ------- null}
r -t 1.670784 -s 3 -d 4 -p tcp -e 1000 -c 1 -i 24 -a 1 -x {0.0 4.0 5 ------- null}
+ -t 1.670784 -s 4 -d 3 -p ack -e 40 -c 1 -i 40 -a 1 -x {4.0 0.0 5 ------- null}
- -t 1.670784 -s 4 -d 3 -p ack -e 40 -c 1 -i 40 -a 1 -x {4.0 0.0 5 ------- null}
h -t 1.670784 -s 4 -d 3 -p ack -e 40 -c 1 -i 40 -a 1 -x {4.0 0.0 -1 ------- null}
- -t 1.673312 -s 0 -d 3 -p tcp -e 1000 -c 1 -i 39 -a 1 -x {0.0 4.0 10 ------- null}
h -t 1.673312 -s 0 -d 3 -p tcp -e 1000 -c 1 -i 39 -a 1 -x {0.0 4.0 -1 ------- null}
r -t 1.680784 -s 4 -d 3 -p ack -e 40 -c 3 -i 34 -a 3 -x {4.2 2.0 3 ------- null}
+ -t 1.680784 -s 3 -d 2 -p ack -e 40 -c 3 -i 34 -a 3 -x {4.2 2.0 3 ------- null}
- -t 1.680784 -s 3 -d 2 -p ack -e 40 -c 3 -i 34 -a 3 -x {4.2 2.0 3 ------- null}
h -t 1.680784 -s 3 -d 2 -p ack -e 40 -c 3 -i 34 -a 3 -x {4.2 2.0 -1 ------- null}
- -t 1.680784 -s 3 -d 4 -p tcp -e 1040 -c 3 -i 28 -a 3 -x {2.0 4.2 5 ------- null}
h -t 1.680784 -s 3 -d 4 -p tcp -e 1040 -c 3 -i 28 -a 3 -x {2.0 4.2 -1 ------- null}
r -t 1.690112 -s 3 -d 1 -p ack -e 40 -c 2 -i 32 -a 2 -x {4.1 1.0 3 ------- null}
1.69011  1  0  4  1  cwnd_ 5.000 
+ -t 1.690112 -s 1 -d 3 -p tcp -e 1000 -c 2 -i 41 -a 2 -x {1.0 4.1 7 ------- null}
- -t 1.690112 -s 1 -d 3 -p tcp -e 1000 -c 2 -i 41 -a 2 -x {1.0 4.1 7 ------- null}
h -t 1.690112 -s 1 -d 3 -p tcp -e 1000 -c 2 -i 41 -a 2 -x {1.0 4.1 -1 ------- null}
+ -t 1.690112 -s 1 -d 3 -p tcp -e 1000 -c 2 -i 42 -a 2 -x {1.0 4.1 8 ------- null}
r -t 1.690784 -s 3 -d 4 -p tcp -e 1000 -c 1 -i 25 -a 1 -x {0.0 4.0 6 ------- null}
+ -t 1.690784 -s 4 -d 3 -p ack -e 40 -c 1 -i 43 -a 1 -x {4.0 0.0 6 ------- null}
- -t 1.690784 -s 4 -d 3 -p ack -e 40 -c 1 -i 43 -a 1 -x {4.0 0.0 6 ------- null}
h -t 1.690784 -s 4 -d 3 -p ack -e 40 -c 1 -i 43 -a 1 -x {4.0 0.0 -1 ------- null}
- -t 1.693312 -s 1 -d 3 -p tcp -e 1000 -c 2 -i 42 -a 2 -x {1.0 4.1 8 ------- null}
h -t 1.693312 -s 1 -d 3 -p tcp -e 1000 -c 2 -i 42 -a 2 -x {1.0 4.1 -1 ------- null}
r -t 1.701584 -s 4 -d 3 -p ack -e 40 -c 3 -i 37 -a 3 -x {4.2 2.0 4 ------- null}
+ -t 1.701584 -s 3 -d 2 -p ack -e 40 -c 3 -i 37 -a 3 -x {4.2 2.0 4 ------- null}
- -t 1.701584 -s 3 -d 2 -p ack -e 40 -c 3 -i 37 -a 3 -x {4.2 2.0 4 ------- null}
h -t 1.701584 -s 3 -d 2 -p ack -e 40 -c 3 -i 37 -a 3 -x {4.2 2.0 -1 ------- null}
- -t 1.701584 -s 3 -d 4 -p tcp -e 1040 -c 3 -i 29 -a 3 -x {2.0 4.2 6 ------- null}
h -t 1.701584 -s 3 -d 4 -p tcp -e 1040 -c 3 -i 29 -a 3 -x {2.0 4.2 -1 ------- null}
r -t 1.703312 -s 0 -d 3 -p tcp -e 1000 -c 1 -i 35 -a 1 -x {0.0 4.0 7 ------- null}
+ -t 1.703312 -s 3 -d 4 -p tcp -e 1000 -c 1 -i 35 -a 1 -x {0.0 4.0 7 ------- null}
r -t 1.706512 -s 0 -d 3 -p tcp -e 1000 -c 1 -i 36 -a 1 -x {0.0 4.0 8 ------- null}
+ -t 1.706512 -s 3 -d 4 -p tcp -e 1000 -c 1 -i 36 -a 1 -x {0.0 4.0 8 ------- null}
r -t 1.710112 -s 3 -d 1 -p ack -e 40 -c 2 -i 33 -a 2 -x {4.1 1.0 4 ------- null}
1.71011  1  0  4  1  cwnd_ 6.000 
+ -t 1.710112 -s 1 -d 3 -p tcp -e 1000 -c 2 -i 44 -a 2 -x {1.0 4.1 9 ------- null}
- -t 1.710112 -s 1 -d 3 -p tcp -e 1000 -c 2 -i 44 -a 2 -x {1.0 4.1 9 ------- null}
h -t 1.710112 -s 1 -d 3 -p tcp -e 1000 -c 2 -i 44 -a 2 -x {1.0 4.1 -1 ------- null}
+ -t 1.710112 -s 1 -d 3 -p tcp -e 1000 -c 2 -i 45 -a 2 -x {1.0 4.1 10 ------- null}
r -t 1.710784 -s 3 -d 4 -p tcp -e 1000 -c 2 -i 26 -a 2 -x {1.0 4.1 5 ------- null}
+ -t 1.710784 -s 4 -d 3 -p ack -e 40 -c 2 -i 46 -a 2 -x {4.1 1.0 5 ------- null}
- -t 1.710784 -s 4 -d 3 -p ack -e 40 -c 2 -i 46 -a 2 -x {4.1 1.0 5 ------- null}
h -t 1.710784 -s 4 -d 3 -p ack -e 40 -c 2 -i 46 -a 2 -x {4.1 1.0 -1 ------- null}
- -t 1.713312 -s 1 -d 3 -p tcp -e 1000 -c 2 -i 45 -a 2 -x {1.0 4.1 10 ------- null}
h -t 1.713312 -s 1 -d 3 -p tcp -e 1000 -c 2 -i 45 -a 2 -x {1.0 4.1 -1 ------- null}
r -t 1.721584 -s 4 -d 3 -p ack -e 40 -c 1 -i 40 -a 1 -x {4.0 0.0 5 ------- null}
+ -t 1.721584 -s 3 -d 0 -p ack -e 40 -c 1 -i 40 -a 1 -x {4.0 0.0 5 ------- null}
- -t 1.721584 -s 3 -d 0 -p ack -e 40 -c 1 -i 40 -a 1 -x {4.0 0.0 5 ------- null}
h -t 1.721584 -s 3 -d 0 -p ack -e 40 -c 1 -i 40 -a 1 -x {4.0 0.0 -1 ------- null}
- -t 1.722384 -s 3 -d 4 -p tcp -e 1000 -c 1 -i 35 -a 1 -x {0.0 4.0 7 ------- null}
h -t 1.722384 -s 3 -d 4 -p tcp -e 1000 -c 1 -i 35 -a 1 -x {0.0 4.0 -1 ------- null}
r -t 1.723312 -s 0 -d 3 -p tcp -e 1000 -c 1 -i 38 -a 1 -x {0.0 4.0 9 ------- null}
+ -t 1.723312 -s 3 -d 4 -p tcp -e 1000 -c 1 -i 38 -a 1 -x {0.0 4.0 9 ------- null}
r -t 1.726512 -s 0 -d 3 -p tcp -e 1000 -c 1 -i 39 -a 1 -x {0.0 4.0 10 ------- null}
+ -t 1.726512 -s 3 -d 4 -p tcp -e 1000 -c 1 -i 39 -a 1 -x {0.0 4.0 10 ------- null}
r -t 1.730784 -s 3 -d 4 -p tcp -e 1000 -c 2 -i 27 -a 2 -x {1.0 4.1 6 ------- null}
+ -t 1.730784 -s 4 -d 3 -p ack -e 40 -c 2 -i 47 -a 2 -x {4.1 1.0 6 ------- null}
- -t 1.730784 -s 4 -d 3 -p ack -e 40 -c 2 -i 47 -a 2 -x {4.1 1.0 6 ------- null}
h -t 1.730784 -s 4 -d 3 -p ack -e 40 -c 2 -i 47 -a 2 -x {4.1 1.0 -1 ------- null}
r -t 1.730912 -s 3 -d 2 -p ack -e 40 -c 3 -i 34 -a 3 -x {4.2 2.0 3 ------- null}
1.73091  2  0  4  2  ack_ 3
+ -t 1.730912 -s 2 -d 3 -p tcp -e 1040 -c 3 -i 48 -a 3 -x {2.0 4.2 7 ------- null}
- -t 1.730912 -s 2 -d 3 -p tcp -e 1040 -c 3 -i 48 -a 3 -x {2.0 4.2 7 ------- null}
h -t 1.730912 -s 2 -d 3 -p tcp -e 1040 -c 3 -i 48 -a 3 -x {2.0 4.2 -1 ------- null}
+ -t 1.730912 -s 2 -d 3 -p tcp -e 1040 -c 3 -i 49 -a 3 -x {2.0 4.2 8 ------- null}
- -t 1.73424 -s 2 -d 3 -p tcp -e 1040 -c 3 -i 49 -a 3 -x {2.0 4.2 8 ------- null}
h -t 1.73424 -s 2 -d 3 -p tcp -e 1040 -c 3 -i 49 -a 3 -x {2.0 4.2 -1 ------- null}
r -t 1.741584 -s 4 -d 3 -p ack -e 40 -c 1 -i 43 -a 1 -x {4.0 0.0 6 ------- null}
+ -t 1.741584 -s 3 -d 0 -p ack -e 40 -c 1 -i 43 -a 1 -x {4.0 0.0 6 ------- null}
- -t 1.741584 -s 3 -d 0 -p ack -e 40 -c 1 -i 43 -a 1 -x {4.0 0.0 6 ------- null}
h -t 1.741584 -s 3 -d 0 -p ack -e 40 -c 1 -i 43 -a 1 -x {4.0 0.0 -1 ------- null}
- -t 1.742384 -s 3 -d 4 -p tcp -e 1000 -c 1 -i 36 -a 1 -x {0.0 4.0 8 ------- null}
h -t 1.742384 -s 3 -d 4 -p tcp -e 1000 -c 1 -i 36 -a 1 -x {0.0 4.0 -1 ------- null}
r -t 1.743312 -s 1 -d 3 -p tcp -e 1000 -c 2 -i 41 -a 2 -x {1.0 4.1 7 ------- null}
+ -t 1.743312 -s 3 -d 4 -p tcp -e 1000 -c 2 -i 41 -a 2 -x {1.0 4.1 7 ------- null}