0.00000  0  0  4  0  ack_ -1
a -t 0 -s 0 -d 4 -n tcp
+ 1 0 3 tcp 40 ------- 1 0.0 4.0 0 0
- 1 0 3 tcp 40 ------- 1 0.0 4.0 0 0
+ 1 1 3 tcp 40 ------- 2 1.0 4.1 0 1
- 1 1 3 tcp 40 ------- 2 1.0 4.1 0 1
+ 1 2 3 tcp 40 ------- 3 2.0 4.2 0 2
- 1 2 3 tcp 40 ------- 3 2.0 4.2 0 2
r 1.050128 0 3 tcp 40 ------- 1 0.0 4.0 0 0
+ 1.050128 3 4 tcp 40 ------- 1 0.0 4.0 0 0
- 1.050128 3 4 tcp 40 ------- 1 0.0 4.0 0 0
r 1.050128 1 3 tcp 40 ------- 2 1.0 4.1 0 1
+ 1.050128 3 4 tcp 40 ------- 2 1.0 4.1 0 1
r 1.050128 2 3 tcp 40 ------- 3 2.0 4.2 0 2
+ 1.050128 3 4 tcp 40 ------- 3 2.0 4.2 0 2
- 1.050928 3 4 tcp 40 ------- 2 1.0 4.1 0 1
- 1.051728 3 4 tcp 40 ------- 3 2.0 4.2 0 2
r 1.100928 3 4 tcp 40 ------- 1 0.0 4.0 0 0
+ 1.100928 4 3 ack 40 ------- 1 4.0 0.0 0 3
- 1.100928 4 3 ack 40 ------- 1 4.0 0.0 0 3
r 1.101728 3 4 tcp 40 ------- 2 1.0 4.1 0 1
+ 1.101728 4 3 ack 40 ------- 2 4.1 1.0 0 4
- 1.101728 4 3 ack 40 ------- 2 4.1 1.0 0 4
r 1.102528 3 4 tcp 40 ------- 3 2.0 4.2 0 2
+ 1.102528 4 3 ack 40 ------- 3 4.2 2.0 0 5
- 1.102528 4 3 ack 40 ------- 3 4.2 2.0 0 5
r 1.151728 4 3 ack 40 ------- 1 4.0 0.0 0 3
+ 1.151728 3 0 ack 40 ------- 1 4.0 0.0 0 3
- 1.151728 3 0 ack 40 ------- 1 4.0 0.0 0 3
r 1.152528 4 3 ack 40 ------- 2 4.1 1.0 0 4
+ 1.152528 3 1 ack 40 ------- 2 4.1 1.0 0 4
- 1.152528 3 1 ack 40 ------- 2 4.1 1.0 0 4
r 1.153328 4 3 ack 40 ------- 3 4.2 2.0 0 5
+ 1.153328 3 2 ack 40 ------- 3 4.2 2.0 0 5
- 1.153328 3 2 ack 40 ------- 3 4.2 2.0 0 5
r 1.201856 3 0 ack 40 ------- 1 4.0 0.0 0 3
1.20186  0  0  4  0  ack_ 0
+ 1.201856 0 3 tcp 1000 ------- 1 0.0 4.0 1 6
- 1.201856 0 3 tcp 1000 ------- 1 0.0 4.0 1 6
+ 1.201856 0 3 tcp 1000 ------- 1 0.0 4.0 2 7
r 1.202656 3 1 ack 40 ------- 2 4.1 1.0 0 4
+ 1.202656 1 3 tcp 1000 ------- 2 1.0 4.1 1 8
- 1.202656 1 3 tcp 1000 ------- 2 1.0 4.1 1 8
+ 1.202656 1 3 tcp 1000 ------- 2 1.0 4.1 2 9
r 1.203456 3 2 ack 40 ------- 3 4.2 2.0 0 5
+ 1.203456 2 3 tcp 1040 ------- 3 2.0 4.2 1 10
- 1.203456 2 3 tcp 1040 ------- 3 2.0 4.2 1 10
+ 1.203456 2 3 tcp 1040 ------- 3 2.0 4.2 2 11
- 1.205056 0 3 tcp 1000 ------- 1 0.0 4.0 2 7
- 1.205856 1 3 tcp 1000 ------- 2 1.0 4.1 2 9
- 1.206784 2 3 tcp 1040 ------- 3 2.0 4.2 2 11
r 1.255056 0 3 tcp 1000 ------- 1 0.0 4.0 1 6
+ 1.255056 3 4 tcp 1000 ------- 1 0.0 4.0 1 6
- 1.255056 3 4 tcp 1000 ------- 1 0.0 4.0 1 6
r 1.255856 1 3 tcp 1000 ------- 2 1.0 4.1 1 8
+ 1.255856 3 4 tcp 1000 ------- 2 1.0 4.1 1 8
r 1.256784 2 3 tcp 1040 ------- 3 2.0 4.2 1 10
+ 1.256784 3 4 tcp 1040 ------- 3 2.0 4.2 1 10
r 1.258256 0 3 tcp 1000 ------- 1 0.0 4.0 2 7
+ 1.258256 3 4 tcp 1000 ------- 1 0.0 4.0 2 7
r 1.259056 1 3 tcp 1000 ------- 2 1.0 4.1 2 9
+ 1.259056 3 4 tcp 1000 ------- 2 1.0 4.1 2 9
r 1.260112 2 3 tcp 1040 ------- 3 2.0 4.2 2 11
+ 1.260112 3 4 tcp 1040 ------- 3 2.0 4.2 2 11
- 1.275056 3 4 tcp 1000 ------- 2 1.0 4.1 1 8
- 1.295056 3 4 tcp 1040 ------- 3 2.0 4.2 1 10
- 1.315856 3 4 tcp 1000 ------- 1 0.0 4.0 2 7
r 1.325056 3 4 tcp 1000 ------- 1 0.0 4.0 1 6
+ 1.325056 4 3 ack 40 ------- 1 4.0 0.0 1 12
- 1.325056 4 3 ack 40 ------- 1 4.0 0.0 1 12
- 1.335856 3 4 tcp 1000 ------- 2 1.0 4.1 2 9
r 1.345056 3 4 tcp 1000 ------- 2 1.0 4.1 1 8
+ 1.345056 4 3 ack 40 ------- 2 4.1 1.0 1 13
- 1.345056 4 3 ack 40 ------- 2 4.1 1.0 1 13
- 1.355856 3 4 tcp 1040 ------- 3 2.0 4.2 2 11
r 1.365856 3 4 tcp 1040 ------- 3 2.0 4.2 1 10
+ 1.365856 4 3 ack 40 ------- 3 4.2 2.0 1 14
- 1.365856 4 3 ack 40 ------- 3 4.2 2.0 1 14
r 1.375856 4 3 ack 40 ------- 1 4.0 0.0 1 12
+ 1.375856 3 0 ack 40 ------- 1 4.0 0.0 1 12
- 1.375856 3 0 ack 40 ------- 1 4.0 0.0 1 12
r 1.385856 3 4 tcp 1000 ------- 1 0.0 4.0 2 7
+ 1.385856 4 3 ack 40 ------- 1 4.0 0.0 2 15
- 1.385856 4 3 ack 40 ------- 1 4.0 0.0 2 15
r 1.395856 4 3 ack 40 ------- 2 4.1 1.0 1 13
+ 1.395856 3 1 ack 40 ------- 2 4.1 1.0 1 13
- 1.395856 3 1 ack 40 ------- 2 4.1 1.0 1 13
r 1.405856 3 4 tcp 1000 ------- 2 1.0 4.1 2 9
+ 1.405856 4 3 ack 40 ------- 2 4.1 1.0 2 16
- 1.405856 4 3 ack 40 ------- 2 4.1 1.0 2 16
r 1.416656 4 3 ack 40 ------- 3 4.2 2.0 1 14
+ 1.416656 3 2 ack 40 ------- 3 4.2 2.0 1 14
- 1.416656 3 2 ack 40 ------- 3 4.2 2.0 1 14
r 1.425984 3 0 ack 40 ------- 1 4.0 0.0 1 12
1.42598  0  0  4  0  ack_ 1
+ 1.425984 0 3 tcp 1000 ------- 1 0.0 4.0 3 17
- 1.425984 0 3 tcp 1000 ------- 1 0.0 4.0 3 17
+ 1.425984 0 3 tcp 1000 ------- 1 0.0 4.0 4 18
r 1.426656 3 4 tcp 1040 ------- 3 2.0 4.2 2 11
+ 1.426656 4 3 ack 40 ------- 3 4.2 2.0 2 19
- 1.426656 4 3 ack 40 ------- 3 4.2 2.0 2 19
- 1.429184 0 3 tcp 1000 ------- 1 0.0 4.0 4 18
r 1.436656 4 3 ack 40 ------- 1 4.0 0.0 2 15
+ 1.436656 3 0 ack 40 ------- 1 4.0 0.0 2 15
- 1.436656 3 0 ack 40 ------- 1 4.0 0.0 2 15
r 1.445984 3 1 ack 40 ------- 2 4.1 1.0 1 13
+ 1.445984 1 3 tcp 1000 ------- 2 1.0 4.1 3 20
- 1.445984 1 3 tcp 1000 ------- 2 1.0 4.1 3 20
+ 1.445984 1 3 tcp 1000 ------- 2 1.0 4.1 4 21
- 1.449184 1 3 tcp 1000 ------- 2 1.0 4.1 4 21
r 1.456656 4 3 ack 40 ------- 2 4.1 1.0 2 16
+ 1.456656 3 1 ack 40 ------- 2 4.1 1.0 2 16
- 1.456656 3 1 ack 40 ------- 2 4.1 1.0 2 16
r 1.466784 3 2 ack 40 ------- 3 4.2 2.0 1 14
+ 1.466784 2 3 tcp 1040 ------- 3 2.0 4.2 3 22
- 1.466784 2 3 tcp 1040 ------- 3 2.0 4.2 3 22
+ 1.466784 2 3 tcp 1040 ------- 3 2.0 4.2 4 23
- 1.470112 2 3 tcp 1040 ------- 3 2.0 4.2 4 23
r 1.477456 4 3 ack 40 ------- 3 4.2 2.0 2 19
+ 1.477456 3 2 ack 40 ------- 3 4.2 2.0 2 19
- 1.477456 3 2 ack 40 ------- 3 4.2 2.0 2 19
r 1.479184 0 3 tcp 1000 ------- 1 0.0 4.0 3 17
+ 1.479184 3 4 tcp 1000 ------- 1 0.0 4.0 3 17
- 1.479184 3 4 tcp 1000 ------- 1 0.0 4.0 3 17
r 1.482384 0 3 tcp 1000 ------- 1 0.0 4.0 4 18
+ 1.482384 3 4 tcp 1000 ------- 1 0.0 4.0 4 18
r 1.486784 3 0 ack 40 ------- 1 4.0 0.0 2 15
1.48678  0  0  4  0  ack_ 2
+ 1.486784 0 3 tcp 1000 ------- 1 0.0 4.0 5 24
- 1.486784 0 3 tcp 1000 ------- 1 0.0 4.0 5 24
+ 1.486784 0 3 tcp 1000 ------- 1 0.0 4.0 6 25
- 1.489984 0 3 tcp 1000 ------- 1 0.0 4.0 6 25
r 1.499184 1 3 tcp 1000 ------- 2 1.0 4.1 3 20
+ 1.499184 3 4 tcp 1000 ------- 2 1.0 4.1 3 20
- 1.499184 3 4 tcp 1000 ------- 1 0.0 4.0 4 18
r 1.502384 1 3 tcp 1000 ------- 2 1.0 4.1 4 21
+ 1.502384 3 4 tcp 1000 ------- 2 1.0 4.1 4 21
r 1.506784 3 1 ack 40 ------- 2 4.1 1.0 2 16
+ 1.506784 1 3 tcp 1000 ------- 2 1.0 4.1 5 26
- 1.506784 1 3 tcp 1000 ------- 2 1.0 4.1 5 26
+ 1.506784 1 3 tcp 1000 ------- 2 1.0 4.1 6 27
- 1.509984 1 3 tcp 1000 ------- 2 1.0 4.1 6 27
- 1.519184 3 4 tcp 1000 ------- 2 1.0 4.1 3 20
r 1.520112 2 3 tcp 1040 ------- 3 2.0 4.2 3 22
+ 1.520112 3 4 tcp 1040 ------- 3 2.0 4.2 3 22
r 1.52344 2 3 tcp 1040 ------- 3 2.0 4.2 4 23
+ 1.52344 3 4 tcp 1040 ------- 3 2.0 4.2 4 23
r 1.527584 3 2 ack 40 ------- 3 4.2 2.0 2 19
+ 1.527584 2 3 tcp 1040 ------- 3 2.0 4.2 5 28
- 1.527584 2 3 tcp 1040 ------- 3 2.0 4.2 5 28
+ 1.527584 2 3 tcp 1040 ------- 3 2.0 4.2 6 29
- 1.530912 2 3 tcp 1040 ------- 3 2.0 4.2 6 29
- 1.539184 3 4 tcp 1000 ------- 2 1.0 4.1 4 21
r 1.539984 0 3 tcp 1000 ------- 1 0.0 4.0 5 24
+ 1.539984 3 4 tcp 1000 ------- 1 0.0 4.0 5 24
r 1.543184 0 3 tcp 1000 ------- 1 0.0 4.0 6 25
+ 1.543184 3 4 tcp 1000 ------- 1 0.0 4.0 6 25
r 1.549184 3 4 tcp 1000 ------- 1 0.0 4.0 3 17
+ 1.549184 4 3 ack 40 ------- 1 4.0 0.0 3 30
- 1.549184 4 3 ack 40 ------- 1 4.0 0.0 3 30
- 1.559184 3 4 tcp 1040 ------- 3 2.0 4.2 3 22
r 1.559984 1 3 tcp 1000 ------- 2 1.0 4.1 5 26
+ 1.559984 3 4 tcp 1000 ------- 2 1.0 4.1 5 26
r 1.563184 1 3 tcp 1000 ------- 2 1.0 4.1 6 27
+ 1.563184 3 4 tcp 1000 ------- 2 1.0 4.1 6 27
r 1.569184 3 4 tcp 1000 ------- 1 0.0 4.0 4 18
+ 1.569184 4 3 ack 40 ------- 1 4.0 0.0 4 31
- 1.569184 4 3 ack 40 ------- 1 4.0 0.0 4 31
- 1.579984 3 4 tcp 1040 ------- 3 2.0 4.2 4 23
r 1.580912 2 3 tcp 1040 ------- 3 2.0 4.2 5 28
+ 1.580912 3 4 tcp 1040 ------- 3 2.0 4.2 5 28
r 1.58424 2 3 tcp 1040 ------- 3 2.0 4.2 6 29
+ 1.58424 3 4 tcp 1040 ------- 3 2.0 4.2 6 29
r 1.589184 3 4 tcp 1000 ------- 2 1.0 4.1 3 20
+ 1.589184 4 3 ack 40 ------- 2 4.1 1.0 3 32
- 1.589184 4 3 ack 40 ------- 2 4.1 1.0 3 32
r 1.599984 4 3 ack 40 ------- 1 4.0 0.0 3 30
+ 1.599984 3 0 ack 40 ------- 1 4.0 0.0 3 30
- 1.599984 3 0 ack 40 ------- 1 4.0 0.0 3 30
- 1.600784 3 4 tcp 1000 ------- 1 0.0 4.0 5 24
r 1.609184 3 4 tcp 1000 ------- 2 1.0 4.1 4 21
+ 1.609184 4 3 ack 40 ------- 2 4.1 1.0 4 33
- 1.609184 4 3 ack 40 ------- 2 4.1 1.0 4 33
r 1.619984 4 3 ack 40 ------- 1 4.0 0.0 4 31
+ 1.619984 3 0 ack 40 ------- 1 4.0 0.0 4 31
- 1.619984 3 0 ack 40 ------- 1 4.0 0.0 4 31
- 1.620784 3 4 tcp 1000 ------- 1 0.0 4.0 6 25
r 1.629984 3 4 tcp 1040 ------- 3 2.0 4.2 3 22
+ 1.629984 4 3 ack 40 ------- 3 4.2 2.0 3 34
- 1.629984 4 3 ack 40 ------- 3 4.2 2.0 3 34
r 1.639984 4 3 ack 40 ------- 2 4.1 1.0 3 32
+ 1.639984 3 1 ack 40 ------- 2 4.1 1.0 3 32
- 1.639984 3 1 ack 40 ------- 2 4.1 1.0 3 32
- 1.640784 3 4 tcp 1000 ------- 2 1.0 4.1 5 26
r 1.650112 3 0 ack 40 ------- 1 4.0 0.0 3 30
1.65011  0  0  4  0  ack_ 3
+ 1.650112 0 3 tcp 1000 ------- 1 0.0 4.0 7 35
- 1.650112 0 3 tcp 1000 ------- 1 0.0 4.0 7 35
+ 1.650112 0 3 tcp 1000 ------- 1 0.0 4.0 8 36
r 1.650784 3 4 tcp 1040 ------- 3 2.0 4.2 4 23
+ 1.650784 4 3 ack 40 ------- 3 4.2 2.0 4 37
- 1.650784 4 3 ack 40 ------- 3 4.2 2.0 4 37
- 1.653312 0 3 tcp 1000 ------- 1 0.0 4.0 8 36
r 1.659984 4 3 ack 40 ------- 2 4.1 1.0 4 33
+ 1.659984 3 1 ack 40 ------- 2 4.1 1.0 4 33
- 1.659984 3 1 ack 40 ------- 2 4.1 1.0 4 33
- 1.660784 3 4 tcp 1000 ------- 2 1.0 4.1 6 27
r 1.670112 3 0 ack 40 ------- 1 4.0 0.0 4 31
1.67011  0  0  4  0  ack_ 4
+ 1.670112 0 3 tcp 1000 ------- 1 0.0 4.0 9 38
- 1.670112 0 3 tcp 1000 ------- 1 0.0 4.0 9 38
+ 1.670112 0 3 tcp 1000 ------- 1 0.0 4.0 10 39
r 1.670784 3 4 tcp 1000 ------- 1 0.0 4.0 5 24
+ 1.670784 4 3 ack 40 ------- 1 4.0 0.0 5 40
- 1.670784 4 3 ack 40 ------- 1 4.0 0.0 5 40
- 1.673312 0 3 tcp 1000 ------- 1 0.0 4.0 10 39
r 1.680784 4 3 ack 40 ------- 3 4.2 2.0 3 34
+ 1.680784 3 2 ack 40 ------- 3 4.2 2.0 3 34
- 1.680784 3 2 ack 40 ------- 3 4.2 2.0 3 34
- 1.680784 3 4 tcp 1040 ------- 3 2.0 4.2 5 28
r 1.690112 3 1 ack 40 ------- 2 4.1 1.0 3 32
+ 1.690112 1 3 tcp 1000 ------- 2 1.0 4.1 7 41
- 1.690112 1 3 tcp 1000 ------- 2 1.0 4.1 7 41
+ 1.690112 1 3 tcp 1000 ------- 2 1.0 4.1 8 42
r 1.690784 3 4 tcp 1000 ------- 1 0.0 4.0 6 25
+ 1.690784 4 3 ack 40 ------- 1 4.0 0.0 6 43
- 1.690784 4 3 ack 40 ------- 1 4.0 0.0 6 43
- 1.693312 1 3 tcp 1000 ------- 2 1.0 4.1 8 42
r 1.701584 4 3 ack 40 ------- 3 4.2 2.0 4 37
+ 1.701584 3 2 ack 40 ------- 3 4.2 2.0 4 37
- 1.701584 3 2 ack 40 ------- 3 4.2 2.0 4 37
- 1.701584 3 4 tcp 1040 ------- 3 2.0 4.2 6 29
r 1.703312 0 3 tcp 1000 ------- 1 0.0 4.0 7 35
+ 1.703312 3 4 tcp 1000 ------- 1 0.0 4.0 7 35
r 1.706512 0 3 tcp 1000 ------- 1 0.0 4.0 8 36
+ 1.706512 3 4 tcp 1000 ------- 1 0.0 4.0 8 36
r 1.710112 3 1 ack 40 ------- 2 4.1 1.0 4 33
+ 1.710112 1 3 tcp 1000 ------- 2 1.0 4.1 9 44
- 1.710112 1 3 tcp 1000 ------- 2 1.0 4.1 9 44
+ 1.710112 1 3 tcp 1000 ------- 2 1.0 4.1 10 45
r 1.710784 3 4 tcp 1000 ------- 2 1.0 4.1 5 26
+ 1.710784 4 3 ack 40 ------- 2 4.1 1.0 5 46
- 1.710784 4 3 ack 40 ------- 2 4.1 1.0 5 46
- 1.713312 1 3 tcp 1000 ------- 2 1.0 4.1 10 45
r 1.721584 4 3 ack 40 ------- 1 4.0 0.0 5 40
+ 1.721584 3 0 ack 40 ------- 1 4.0 0.0 5 40
- 1.721584 3 0 ack 40 ------- 1 4.0 0.0 5 40
- 1.722384 3 4 tcp 1000 ------- 1 0.0 4.0 7 35
r 1.723312 0 3 tcp 1000 ------- 1 0.0 4.0 9 38
+ 1.723312 3 4 tcp 1000 ------- 1 0.0 4.0 9 38
r 1.726512 0 3 tcp 1000 ------- 1 0.0 4.0 10 39
+ 1.726512 3 4 tcp 1000 ------- 1 0.0 4.0 10 39
r 1.730784 3 4 tcp 1000 ------- 2 1.0 4.1 6 27
+ 1.730784 4 3 ack 40 ------- 2 4.1 1.0 6 47
- 1.730784 4 3 ack 40 ------- 2 4.1 1.0 6 47
r 1.730912 3 2 ack 40 ------- 3 4.2 2.0 3 34
+ 1.730912 2 3 tcp 1040 ------- 3 2.0 4.2 7 48
- 1.730912 2 3 tcp 1040 ------- 3 2.0 4.2 7 48
+ 1.730912 2 3 tcp 1040 ------- 3 2.0 4.2 8 49
- 1.73424 2 3 tcp 1040 ------- 3 2.0 4.2 8 49
r 1.741584 4 3 ack 40 ------- 1 4.0 0.0 6 43
+ 1.741584 3 0 ack 40 ------- 1 4.0 0.0 6 43
- 1.741584 3 0 ack 40 ------- 1 4.0 0.0 6 43
- 1.742384 3 4 tcp 1000 ------- 1 0.0 4.0 8 36
r 1.743312 1 3 tcp 1000 ------- 2 1.0 4.1 7 41
+ 1.743312 3 4 tcp 1000 ------- 2 1.0 4.1 7 41
r 1.746512 1 3 tcp 1000 ------- 2 1.0 4.1 8 42
+ 1.746512 3 4 tcp 1000 ------- 2 1.0 4.1 8 42
r 1.751584 3 4 tcp 1040 ------- 3 2.0 4.2 5 28
+ 1.751584 4 3 ack 40 ------- 3 4.2 2.0 5 50
- 1.751584 4 3 ack 40 ------- 3 4.2 2.0 5 50
r 1.751712 3 2 ack 40 ------- 3 4.2 2.0 4 37
+ 1.751712 2 3 tcp 1040 ------- 3 2.0 4.2 9 51
- 1.751712 2 3 tcp 1040 ------- 3 2.0 4.2 9 51
+ 1.751712 2 3 tcp 1040 ------- 3 2.0 4.2 10 52
- 1.75504 2 3 tcp 1040 ------- 3 2.0 4.2 10 52
r 1.761584 4 3 ack 40 ------- 2 4.1 1.0 5 46
+ 1.761584 3 1 ack 40 ------- 2 4.1 1.0 5 46
- 1.761584 3 1 ack 40 ------- 2 4.1 1.0 5 46
- 1.762384 3 4 tcp 1000 ------- 1 0.0 4.0 9 38
r 1.763312 1 3 tcp 1000 ------- 2 1.0 4.1 9 44
+ 1.763312 3 4 tcp 1000 ------- 2 1.0 4.1 9 44
r 1.766512 1 3 tcp 1000 ------- 2 1.0 4.1 10 45
+ 1.766512 3 4 tcp 1000 ------- 2 1.0 4.1 10 45
r 1.771712 3 0 ack 40 ------- 1 4.0 0.0 5 40
1.77171  0  0  4  0  ack_ 5
+ 1.771712 0 3 tcp 1000 ------- 1 0.0 4.0 11 53
- 1.771712 0 3 tcp 1000 ------- 1 0.0 4.0 11 53
+ 1.771712 0 3 tcp 1000 ------- 1 0.0 4.0 12 54
r 1.772384 3 4 tcp 1040 ------- 3 2.0 4.2 6 29
+ 1.772384 4 3 ack 40 ------- 3 4.2 2.0 6 55
- 1.772384 4 3 ack 40 ------- 3 4.2 2.0 6 55
- 1.774912 0 3 tcp 1000 ------- 1 0.0 4.0 12 54
r 1.781584 4 3 ack 40 ------- 2 4.1 1.0 6 47
+ 1.781584 3 1 ack 40 ------- 2 4.1 1.0 6 47
- 1.781584 3 1 ack 40 ------- 2 4.1 1.0 6 47
- 1.782384 3 4 tcp 1000 ------- 1 0.0 4.0 10 39
r 1.78424 2 3 tcp 1040 ------- 3 2.0 4.2 7 48
+ 1.78424 3 4 tcp 1040 ------- 3 2.0 4.2 7 48
r 1.787568 2 3 tcp 1040 ------- 3 2.0 4.2 8 49
+ 1.787568 3 4 tcp 1040 ------- 3 2.0 4.2 8 49
r 1.791712 3 0 ack 40 ------- 1 4.0 0.0 6 43
1.79171  0  0  4  0  ack_ 6
+ 1.791712 0 3 tcp 1000 ------- 1 0.0 4.0 13 56
- 1.791712 0 3 tcp 1000 ------- 1 0.0 4.0 13 56
+ 1.791712 0 3 tcp 1000 ------- 1 0.0 4.0 14 57
r 1.792384 3 4 tcp 1000 ------- 1 0.0 4.0 7 35
+ 1.792384 4 3 ack 40 ------- 1 4.0 0.0 7 58
- 1.792384 4 3 ack 40 ------- 1 4.0 0.0 7 58
- 1.794912 0 3 tcp 1000 ------- 1 0.0 4.0 14 57
r 1.802384 4 3 ack 40 ------- 3 4.2 2.0 5 50
+ 1.802384 3 2 ack 40 ------- 3 4.2 2.0 5 50
- 1.802384 3 2 ack 40 ------- 3 4.2 2.0 5 50
- 1.802384 3 4 tcp 1000 ------- 2 1.0 4.1 7 41
r 1.80504 2 3 tcp 1040 ------- 3 2.0 4.2 9 51
+ 1.80504 3 4 tcp 1040 ------- 3 2.0 4.2 9 51
r 1.808368 2 3 tcp 1040 ------- 3 2.0 4.2 10 52
+ 1.808368 3 4 tcp 1040 ------- 3 2.0 4.2 10 52
r 1.811712 3 1 ack 40 ------- 2 4.1 1.0 5 46
+ 1.811712 1 3 tcp 1000 ------- 2 1.0 4.1 11 59
- 1.811712 1 3 tcp 1000 ------- 2 1.0 4.1 11 59
+ 1.811712 1 3 tcp 1000 ------- 2 1.0 4.1 12 60
r 1.812384 3 4 tcp 1000 ------- 1 0.0 4.0 8 36
+ 1.812384 4 3 ack 40 ------- 1 4.0 0.0 8 61
- 1.812384 4 3 ack 40 ------- 1 4.0 0.0 8 61
- 1.814912 1 3 tcp 1000 ------- 2 1.0 4.1 12 60
- 1.822384 3 4 tcp 1000 ------- 2 1.0 4.1 8 42
r 1.823184 4 3 ack 40 ------- 3 4.2 2.0 6 55
+ 1.823184 3 2 ack 40 ------- 3 4.2 2.0 6 55
- 1.823184 3 2 ack 40 ------- 3 4.2 2.0 6 55
r 1.824912 0 3 tcp 1000 ------- 1 0.0 4.0 11 53
+ 1.824912 3 4 tcp 1000 ------- 1 0.0 4.0 11 53
r 1.828112 0 3 tcp 1000 ------- 1 0.0 4.0 12 54
+ 1.828112 3 4 tcp 1000 ------- 1 0.0 4.0 12 54
r 1.831712 3 1 ack 40 ------- 2 4.1 1.0 6 47
+ 1.831712 1 3 tcp 1000 ------- 2 1.0 4.1 13 62
- 1.831712 1 3 tcp 1000 ------- 2 1.0 4.1 13 62
+ 1.831712 1 3 tcp 1000 ------- 2 1.0 4.1 14 63
r 1.832384 3 4 tcp 1000 ------- 1 0.0 4.0 9 38
+ 1.832384 4 3 ack 40 ------- 1 4.0 0.0 9 64
- 1.832384 4 3 ack 40 ------- 1 4.0 0.0 9 64
- 1.834912 1 3 tcp 1000 ------- 2 1.0 4.1 14 63
- 1.842384 3 4 tcp 1000 ------- 2 1.0 4.1 9 44
r 1.843184 4 3 ack 40 ------- 1 4.0 0.0 7 58
+ 1.843184 3 0 ack 40 ------- 1 4.0 0.0 7 58
- 1.843184 3 0 ack 40 ------- 1 4.0 0.0 7 58
r 1.844912 0 3 tcp 1000 ------- 1 0.0 4.0 13 56
+ 1.844912 3 4 tcp 1000 ------- 1 0.0 4.0 13 56
r 1.848112 0 3 tcp 1000 ------- 1 0.0 4.0 14 57
+ 1.848112 3 4 tcp 1000 ------- 1 0.0 4.0 14 57
r 1.852384 3 4 tcp 1000 ------- 1 0.0 4.0 10 39
+ 1.852384 4 3 ack 40 ------- 1 4.0 0.0 10 65
- 1.852384 4 3 ack 40 ------- 1 4.0 0.0 10 65
r 1.852512 3 2 ack 40 ------- 3 4.2 2.0 5 50
+ 1.852512 2 3 tcp 1040 ------- 3 2.0 4.2 11 66
- 1.852512 2 3 tcp 1040 ------- 3 2.0 4.2 11 66
+ 1.852512 2 3 tcp 1040 ------- 3 2.0 4.2 12 67
- 1.85584 2 3 tcp 1040 ------- 3 2.0 4.2 12 67
- 1.862384 3 4 tcp 1000 ------- 2 1.0 4.1 10 45
r 1.863184 4 3 ack 40 ------- 1 4.0 0.0 8 61
+ 1.863184 3 0 ack 40 ------- 1 4.0 0.0 8 61
- 1.863184 3 0 ack 40 ------- 1 4.0 0.0 8 61
r 1.864912 1 3 tcp 1000 ------- 2 1.0 4.1 11 59
+ 1.864912 3 4 tcp 1000 ------- 2 1.0 4.1 11 59
r 1.868112 1 3 tcp 1000 ------- 2 1.0 4.1 12 60
+ 1.868112 3 4 tcp 1000 ------- 2 1.0 4.1 12 60
r 1.872384 3 4 tcp 1000 ------- 2 1.0 4.1 7 41
+ 1.872384 4 3 ack 40 ------- 2 4.1 1.0 7 68
- 1.872384 4 3 ack 40 ------- 2 4.1 1.0 7 68
r 1.873312 3 2 ack 40 ------- 3 4.2 2.0 6 55
+ 1.873312 2 3 tcp 1040 ------- 3 2.0 4.2 13 69
- 1.873312 2 3 tcp 1040 ------- 3 2.0 4.2 13 69
+ 1.873312 2 3 tcp 1040 ------- 3 2.0 4.2 14 70
- 1.87664 2 3 tcp 1040 ------- 3 2.0 4.2 14 70
- 1.882384 3 4 tcp 1040 ------- 3 2.0 4.2 7 48
r 1.883184 4 3 ack 40 ------- 1 4.0 0.0 9 64
+ 1.883184 3 0 ack 40 ------- 1 4.0 0.0 9 64
- 1.883184 3 0 ack 40 ------- 1 4.0 0.0 9 64
r 1.884912 1 3 tcp 1000 ------- 2 1.0 4.1 13 62
+ 1.884912 3 4 tcp 1000 ------- 2 1.0 4.1 13 62
r 1.888112 1 3 tcp 1000 ------- 2 1.0 4.1 14 63
+ 1.888112 3 4 tcp 1000 ------- 2 1.0 4.1 14 63
r 1.892384 3 4 tcp 1000 ------- 2 1.0 4.1 8 42
+ 1.892384 4 3 ack 40 ------- 2 4.1 1.0 8 71
- 1.892384 4 3 ack 40 ------- 2 4.1 1.0 8 71
r 1.893312 3 0 ack 40 ------- 1 4.0 0.0 7 58
1.89331  0  0  4  0  ack_ 7
+ 1.893312 0 3 tcp 1000 ------- 1 0.0 4.0 15 72
- 1.893312 0 3 tcp 1000 ------- 1 0.0 4.0 15 72
+ 1.893312 0 3 tcp 1000 ------- 1 0.0 4.0 16 73
- 1.896512 0 3 tcp 1000 ------- 1 0.0 4.0 16 73
r 1.903184 4 3 ack 40 ------- 1 4.0 0.0 10 65
+ 1.903184 3 0 ack 40 ------- 1 4.0 0.0 10 65
- 1.903184 3 0 ack 40 ------- 1 4.0 0.0 10 65
- 1.903184 3 4 tcp 1040 ------- 3 2.0 4.2 8 49
r 1.90584 2 3 tcp 1040 ------- 3 2.0 4.2 11 66
+ 1.90584 3 4 tcp 1040 ------- 3 2.0 4.2 11 66
r 1.909168 2 3 tcp 1040 ------- 3 2.0 4.2 12 67
+ 1.909168 3 4 tcp 1040 ------- 3 2.0 4.2 12 67
r 1.912384 3 4 tcp 1000 ------- 2 1.0 4.1 9 44
+ 1.912384 4 3 ack 40 ------- 2 4.1 1.0 9 74
- 1.912384 4 3 ack 40 ------- 2 4.1 1.0 9 74
r 1.913312 3 0 ack 40 ------- 1 4.0 0.0 8 61
1.91331  0  0  4  0  ack_ 8
+ 1.913312 0 3 tcp 1000 ------- 1 0.0 4.0 17 75
- 1.913312 0 3 tcp 1000 ------- 1 0.0 4.0 17 75
+ 1.913312 0 3 tcp 1000 ------- 1 0.0 4.0 18 76
- 1.916512 0 3 tcp 1000 ------- 1 0.0 4.0 18 76
r 1.923184 4 3 ack 40 ------- 2 4.1 1.0 7 68
+ 1.923184 3 1 ack 40 ------- 2 4.1 1.0 7 68
- 1.923184 3 1 ack 40 ------- 2 4.1 1.0 7 68
- 1.923984 3 4 tcp 1040 ------- 3 2.0 4.2 9 51
r 1.92664 2 3 tcp 1040 ------- 3 2.0 4.2 13 69
+ 1.92664 3 4 tcp 1040 ------- 3 2.0 4.2 13 69
r 1.929968 2 3 tcp 1040 ------- 3 2.0 4.2 14 70
+ 1.929968 3 4 tcp 1040 ------- 3 2.0 4.2 14 70
r 1.932384 3 4 tcp 1000 ------- 2 1.0 4.1 10 45
+ 1.932384 4 3 ack 40 ------- 2 4.1 1.0 10 77
- 1.932384 4 3 ack 40 ------- 2 4.1 1.0 10 77
r 1.933312 3 0 ack 40 ------- 1 4.0 0.0 9 64
1.93331  0  0  4  0  ack_ 9
+ 1.933312 0 3 tcp 1000 ------- 1 0.0 4.0 19 78
- 1.933312 0 3 tcp 1000 ------- 1 0.0 4.0 19 78
+ 1.933312 0 3 tcp 1000 ------- 1 0.0 4.0 20 79
- 1.936512 0 3 tcp 1000 ------- 1 0.0 4.0 20 79
r 1.943184 4 3 ack 40 ------- 2 4.1 1.0 8 71
+ 1.943184 3 1 ack 40 ------- 2 4.1 1.0 8 71
- 1.943184 3 1 ack 40 ------- 2 4.1 1.0 8 71
- 1.944784 3 4 tcp 1040 ------- 3 2.0 4.2 10 52
r 1.946512 0 3 tcp 1000 ------- 1 0.0 4.0 15 72
+ 1.946512 3 4 tcp 1000 ------- 1 0.0 4.0 15 72
r 1.949712 0 3 tcp 1000 ------- 1 0.0 4.0 16 73
+ 1.949712 3 4 tcp 1000 ------- 1 0.0 4.0 16 73
r 1.953184 3 4 tcp 1040 ------- 3 2.0 4.2 7 48
+ 1.953184 4 3 ack 40 ------- 3 4.2 2.0 7 80
- 1.953184 4 3 ack 40 ------- 3 4.2 2.0 7 80
r 1.953312 3 0 ack 40 ------- 1 4.0 0.0 10 65
1.95331  0  0  4  0  ack_ 10
+ 1.953312 0 3 tcp 1000 ------- 1 0.0 4.0 21 81
- 1.953312 0 3 tcp 1000 ------- 1 0.0 4.0 21 81
+ 1.953312 0 3 tcp 1000 ------- 1 0.0 4.0 22 82
- 1.956512 0 3 tcp 1000 ------- 1 0.0 4.0 22 82
r 1.963184 4 3 ack 40 ------- 2 4.1 1.0 9 74
+ 1.963184 3 1 ack 40 ------- 2 4.1 1.0 9 74
- 1.963184 3 1 ack 40 ------- 2 4.1 1.0 9 74
- 1.965584 3 4 tcp 1000 ------- 1 0.0 4.0 11 53
r 1.966512 0 3 tcp 1000 ------- 1 0.0 4.0 17 75
+ 1.966512 3 4 tcp 1000 ------- 1 0.0 4.0 17 75
r 1.969712 0 3 tcp 1000 ------- 1 0.0 4.0 18 76
+ 1.969712 3 4 tcp 1000 ------- 1 0.0 4.0 18 76
r 1.973312 3 1 ack 40 ------- 2 4.1 1.0 7 68
+ 1.973312 1 3 tcp 1000 ------- 2 1.0 4.1 15 83
- 1.973312 1 3 tcp 1000 ------- 2 1.0 4.1 15 83
+ 1.973312 1 3 tcp 1000 ------- 2 1.0 4.1 16 84
r 1.973984 3 4 tcp 1040 ------- 3 2.0 4.2 8 49
+ 1.973984 4 3 ack 40 ------- 3 4.2 2.0 8 85
- 1.973984 4 3 ack 40 ------- 3 4.2 2.0 8 85
- 1.976512 1 3 tcp 1000 ------- 2 1.0 4.1 16 84
r 1.983184 4 3 ack 40 ------- 2 4.1 1.0 10 77
+ 1.983184 3 1 ack 40 ------- 2 4.1 1.0 10 77
- 1.983184 3 1 ack 40 ------- 2 4.1 1.0 10 77
- 1.985584 3 4 tcp 1000 ------- 1 0.0 4.0 12 54
r 1.986512 0 3 tcp 1000 ------- 1 0.0 4.0 19 78
+ 1.986512 3 4 tcp 1000 ------- 1 0.0 4.0 19 78
r 1.989712 0 3 tcp 1000 ------- 1 0.0 4.0 20 79
+ 1.989712 3 4 tcp 1000 ------- 1 0.0 4.0 20 79
r 1.993312 3 1 ack 40 ------- 2 4.1 1.0 8 71
+ 1.993312 1 3 tcp 1000 ------- 2 1.0 4.1 17 86
- 1.993312 1 3 tcp 1000 ------- 2 1.0 4.1 17 86
+ 1.993312 1 3 tcp 1000 ------- 2 1.0 4.1 18 87
r 1.994784 3 4 tcp 1040 ------- 3 2.0 4.2 9 51
+ 1.994784 4 3 ack 40 ------- 3 4.2 2.0 9 88
- 1.994784 4 3 ack 40 ------- 3 4.2 2.0 9 88
- 1.996512 1 3 tcp 1000 ------- 2 1.0 4.1 18 87
r 2.003984 4 3 ack 40 ------- 3 4.2 2.0 7 80
+ 2.003984 3 2 ack 40 ------- 3 4.2 2.0 7 80
- 2.003984 3 2 ack 40 ------- 3 4.2 2.0 7 80
- 2.005584 3 4 tcp 1000 ------- 1 0.0 4.0 13 56
r 2.006512 0 3 tcp 1000 ------- 1 0.0 4.0 21 81
+ 2.006512 3 4 tcp 1000 ------- 1 0.0 4.0 21 81
r 2.009712 0 3 tcp 1000 ------- 1 0.0 4.0 22 82
+ 2.009712 3 4 tcp 1000 ------- 1 0.0 4.0 22 82
r 2.013312 3 1 ack 40 ------- 2 4.1 1.0 9 74
+ 2.013312 1 3 tcp 1000 ------- 2 1.0 4.1 19 89
- 2.013312 1 3 tcp 1000 ------- 2 1.0 4.1 19 89
+ 2.013312 1 3 tcp 1000 ------- 2 1.0 4.1 20 90
r 2.015584 3 4 tcp 1040 ------- 3 2.0 4.2 10 52
+ 2.015584 4 3 ack 40 ------- 3 4.2 2.0 10 91
- 2.015584 4 3 ack 40 ------- 3 4.2 2.0 10 91
- 2.016512 1 3 tcp 1000 ------- 2 1.0 4.1 20 90
r 2.024784 4 3 ack 40 ------- 3 4.2 2.0 8 85
+ 2.024784 3 2 ack 40 ------- 3 4.2 2.0 8 85
- 2.024784 3 2 ack 40 ------- 3 4.2 2.0 8 85
- 2.025584 3 4 tcp 1000 ------- 1 0.0 4.0 14 57
r 2.026512 1 3 tcp 1000 ------- 2 1.0 4.1 15 83
+ 2.026512 3 4 tcp 1000 ------- 2 1.0 4.1 15 83
r 2.029712 1 3 tcp 1000 ------- 2 1.0 4.1 16 84
+ 2.029712 3 4 tcp 1000 ------- 2 1.0 4.1 16 84
r 2.033312 3 1 ack 40 ------- 2 4.1 1.0 10 77
+ 2.033312 1 3 tcp 1000 ------- 2 1.0 4.1 21 92
- 2.033312 1 3 tcp 1000 ------- 2 1.0 4.1 21 92
+ 2.033312 1 3 tcp 1000 ------- 2 1.0 4.1 22 93
r 2.035584 3 4 tcp 1000 ------- 1 0.0 4.0 11 53
+ 2.035584 4 3 ack 40 ------- 1 4.0 0.0 11 94
- 2.035584 4 3 ack 40 ------- 1 4.0 0.0 11 94
- 2.036512 1 3 tcp 1000 ------- 2 1.0 4.1 22 93
r 2.045584 4 3 ack 40 ------- 3 4.2 2.0 9 88
+ 2.045584 3 2 ack 40 ------- 3 4.2 2.0 9 88
- 2.045584 3 2 ack 40 ------- 3 4.2 2.0 9 88
- 2.045584 3 4 tcp 1000 ------- 2 1.0 4.1 11 59
r 2.046512 1 3 tcp 1000 ------- 2 1.0 4.1 17 86
+ 2.046512 3 4 tcp 1000 ------- 2 1.0 4.1 17 86
r 2.049712 1 3 tcp 1000 ------- 2 1.0 4.1 18 87
+ 2.049712 3 4 tcp 1000 ------- 2 1.0 4.1 18 87
r 2.054112 3 2 ack 40 ------- 3 4.2 2.0 7 80
+ 2.054112 2 3 tcp 1040 ------- 3 2.0 4.2 15 95
- 2.054112 2 3 tcp 1040 ------- 3 2.0 4.2 15 95
+ 2.054112 2 3 tcp 1040 ------- 3 2.0 4.2 16 96
r 2.055584 3 4 tcp 1000 ------- 1 0.0 4.0 12 54
+ 2.055584 4 3 ack 40 ------- 1 4.0 0.0 12 97
- 2.055584 4 3 ack 40 ------- 1 4.0 0.0 12 97
- 2.05744 2 3 tcp 1040 ------- 3 2.0 4.2 16 96
- 2.065584 3 4 tcp 1000 ------- 2 1.0 4.1 12 60
r 2.066384 4 3 ack 40 ------- 3 4.2 2.0 10 91
+ 2.066384 3 2 ack 40 ------- 3 4.2 2.0 10 91
- 2.066384 3 2 ack 40 ------- 3 4.2 2.0 10 91
r 2.066512 1 3 tcp 1000 ------- 2 1.0 4.1 19 89
+ 2.066512 3 4 tcp 1000 ------- 2 1.0 4.1 19 89
r 2.069712 1 3 tcp 1000 ------- 2 1.0 4.1 20 90
+ 2.069712 3 4 tcp 1000 ------- 2 1.0 4.1 20 90
d 2.069712 3 4 tcp 1000 ------- 2 1.0 4.1 20 90
r 2.074912 3 2 ack 40 ------- 3 4.2 2.0 8 85
+ 2.074912 2 3 tcp 1040 ------- 3 2.0 4.2 17 98
- 2.074912 2 3 tcp 1040 ------- 3 2.0 4.2 17 98
+ 2.074912 2 3 tcp 1040 ------- 3 2.0 4.2 18 99
r 2.075584 3 4 tcp 1000 ------- 1 0.0 4.0 13 56
+ 2.075584 4 3 ack 40 ------- 1 4.0 0.0 13 100
- 2.075584 4 3 ack 40 ------- 1 4.0 0.0 13 100
- 2.07824 2 3 tcp 1040 ------- 3 2.0 4.2 18 99
- 2.085584 3 4 tcp 1000 ------- 2 1.0 4.1 13 62
r 2.086384 4 3 ack 40 ------- 1 4.0 0.0 11 94
+ 2.086384 3 0 ack 40 ------- 1 4.0 0.0 11 94
- 2.086384 3 0 ack 40 ------- 1 4.0 0.0 11 94
r 2.086512 1 3 tcp 1000 ------- 2 1.0 4.1 21 92
+ 2.086512 3 4 tcp 1000 ------- 2 1.0 4.1 21 92
r 2.089712 1 3 tcp 1000 ------- 2 1.0 4.1 22 93
+ 2.089712 3 4 tcp 1000 ------- 2 1.0 4.1 22 93
d 2.089712 3 4 tcp 1000 ------- 2 1.0 4.1 22 93
r 2.095584 3 4 tcp 1000 ------- 1 0.0 4.0 14 57
+ 2.095584 4 3 ack 40 ------- 1 4.0 0.0 14 101
- 2.095584 4 3 ack 40 ------- 1 4.0 0.0 14 101
r 2.095712 3 2 ack 40 ------- 3 4.2 2.0 9 88
+ 2.095712 2 3 tcp 1040 ------- 3 2.0 4.2 19 102
- 2.095712 2 3 tcp 1040 ------- 3 2.0 4.2 19 102
+ 2.095712 2 3 tcp 1040 ------- 3 2.0 4.2 20 103
- 2.09904 2 3 tcp 1040 ------- 3 2.0 4.2 20 103
- 2.105584 3 4 tcp 1000 ------- 2 1.0 4.1 14 63
r 2.106384 4 3 ack 40 ------- 1 4.0 0.0 12 97
+ 2.106384 3 0 ack 40 ------- 1 4.0 0.0 12 97
- 2.106384 3 0 ack 40 ------- 1 4.0 0.0 12 97
r 2.10744 2 3 tcp 1040 ------- 3 2.0 4.2 15 95
+ 2.10744 3 4 tcp 1040 ------- 3 2.0 4.2 15 95
r 2.110768 2 3 tcp 1040 ------- 3 2.0 4.2 16 96
+ 2.110768 3 4 tcp 1040 ------- 3 2.0 4.2 16 96
d 2.110768 3 4 tcp 1040 ------- 3 2.0 4.2 16 96
r 2.115584 3 4 tcp 1000 ------- 2 1.0 4.1 11 59
+ 2.115584 4 3 ack 40 ------- 2 4.1 1.0 11 104
- 2.115584 4 3 ack 40 ------- 2 4.1 1.0 11 104
r 2.116512 3 2 ack 40 ------- 3 4.2 2.0 10 91
+ 2.116512 2 3 tcp 1040 ------- 3 2.0 4.2 21 105
- 2.116512 2 3 tcp 1040 ------- 3 2.0 4.2 21 105
+ 2.116512 2 3 tcp 1040 ------- 3 2.0 4.2 22 106
- 2.11984 2 3 tcp 1040 ------- 3 2.0 4.2 22 106
- 2.125584 3 4 tcp 1040 ------- 3 2.0 4.2 11 66
r 2.126384 4 3 ack 40 ------- 1 4.0 0.0 13 100
+ 2.126384 3 0 ack 40 ------- 1 4.0 0.0 13 100
- 2.126384 3 0 ack 40 ------- 1 4.0 0.0 13 100
r 2.12824 2 3 tcp 1040 ------- 3 2.0 4.2 17 98
+ 2.12824 3 4 tcp 1040 ------- 3 2.0 4.2 17 98
r 2.131568 2 3 tcp 1040 ------- 3 2.0 4.2 18 99
+ 2.131568 3 4 tcp 1040 ------- 3 2.0 4.2 18 99
d 2.131568 3 4 tcp 1040 ------- 3 2.0 4.2 18 99
r 2.135584 3 4 tcp 1000 ------- 2 1.0 4.1 12 60
+ 2.135584 4 3 ack 40 ------- 2 4.1 1.0 12 107
- 2.135584 4 3 ack 40 ------- 2 4.1 1.0 12 107
r 2.136512 3 0 ack 40 ------- 1 4.0 0.0 11 94
2.13651  0  0  4  0  ack_ 11
+ 2.136512 0 3 tcp 1000 ------- 1 0.0 4.0 23 108
- 2.136512 0 3 tcp 1000 ------- 1 0.0 4.0 23 108
+ 2.136512 0 3 tcp 1000 ------- 1 0.0 4.0 24 109
- 2.139712 0 3 tcp 1000 ------- 1 0.0 4.0 24 109
r 2.146384 4 3 ack 40 ------- 1 4.0 0.0 14 101
+ 2.146384 3 0 ack 40 ------- 1 4.0 0.0 14 101
- 2.146384 3 0 ack 40 ------- 1 4.0 0.0 14 101
- 2.146384 3 4 tcp 1040 ------- 3 2.0 4.2 12 67
r 2.14904 2 3 tcp 1040 ------- 3 2.0 4.2 19 102
+ 2.14904 3 4 tcp 1040 ------- 3 2.0 4.2 19 102
r 2.152368 2 3 tcp 1040 ------- 3 2.0 4.2 20 103
+ 2.152368 3 4 tcp 1040 ------- 3 2.0 4.2 20 103
d 2.152368 3 4 tcp 1040 ------- 3 2.0 4.2 20 103
r 2.155584 3 4 tcp 1000 ------- 2 1.0 4.1 13 62
+ 2.155584 4 3 ack 40 ------- 2 4.1 1.0 13 110
- 2.155584 4 3 ack 40 ------- 2 4.1 1.0 13 110
r 2.156512 3 0 ack 40 ------- 1 4.0 0.0 12 97
2.15651  0  0  4  0  ack_ 12
+ 2.156512 0 3 tcp 1000 ------- 1 0.0 4.0 25 111
- 2.156512 0 3 tcp 1000 ------- 1 0.0 4.0 25 111
+ 2.156512 0 3 tcp 1000 ------- 1 0.0 4.0 26 112
- 2.159712 0 3 tcp 1000 ------- 1 0.0 4.0 26 112
r 2.166384 4 3 ack 40 ------- 2 4.1 1.0 11 104
+ 2.166384 3 1 ack 40 ------- 2 4.1 1.0 11 104
- 2.166384 3 1 ack 40 ------- 2 4.1 1.0 11 104
- 2.167184 3 4 tcp 1040 ------- 3 2.0 4.2 13 69
r 2.16984 2 3 tcp 1040 ------- 3 2.0 4.2 21 105
+ 2.16984 3 4 tcp 1040 ------- 3 2.0 4.2 21 105
r 2.173168 2 3 tcp 1040 ------- 3 2.0 4.2 22 106
+ 2.173168 3 4 tcp 1040 ------- 3 2.0 4.2 22 106
d 2.173168 3 4 tcp 1040 ------- 3 2.0 4.2 22 106
r 2.175584 3 4 tcp 1000 ------- 2 1.0 4.1 14 63
+ 2.175584 4 3 ack 40 ------- 2 4.1 1.0 14 113
- 2.175584 4 3 ack 40 ------- 2 4.1 1.0 14 113
r 2.176512 3 0 ack 40 ------- 1 4.0 0.0 13 100
2.17651  0  0  4  0  ack_ 13
+ 2.176512 0 3 tcp 1000 ------- 1 0.0 4.0 27 114
- 2.176512 0 3 tcp 1000 ------- 1 0.0 4.0 27 114
+ 2.176512 0 3 tcp 1000 ------- 1 0.0 4.0 28 115
- 2.179712 0 3 tcp 1000 ------- 1 0.0 4.0 28 115
r 2.186384 4 3 ack 40 ------- 2 4.1 1.0 12 107
+ 2.186384 3 1 ack 40 ------- 2 4.1 1.0 12 107
- 2.186384 3 1 ack 40 ------- 2 4.1 1.0 12 107
- 2.187984 3 4 tcp 1040 ------- 3 2.0 4.2 14 70
r 2.189712 0 3 tcp 1000 ------- 1 0.0 4.0 23 108
+ 2.189712 3 4 tcp 1000 ------- 1 0.0 4.0 23 108
r 2.192912 0 3 tcp 1000 ------- 1 0.0 4.0 24 109
+ 2.192912 3 4 tcp 1000 ------- 1 0.0 4.0 24 109
d 2.192912 3 4 tcp 1000 ------- 1 0.0 4.0 24 109
r 2.196384 3 4 tcp 1040 ------- 3 2.0 4.2 11 66
+ 2.196384 4 3 ack 40 ------- 3 4.2 2.0 11 116
- 2.196384 4 3 ack 40 ------- 3 4.2 2.0 11 116
r 2.196512 3 0 ack 40 ------- 1 4.0 0.0 14 101
2.19651  0  0  4  0  ack_ 14
+ 2.196512 0 3 tcp 1000 ------- 1 0.0 4.0 29 117
- 2.196512 0 3 tcp 1000 ------- 1 0.0 4.0 29 117
r 2.206384 4 3 ack 40 ------- 2 4.1 1.0 13 110
+ 2.206384 3 1 ack 40 ------- 2 4.1 1.0 13 110
- 2.206384 3 1 ack 40 ------- 2 4.1 1.0 13 110
- 2.208784 3 4 tcp 1000 ------- 1 0.0 4.0 15 72
r 2.209712 0 3 tcp 1000 ------- 1 0.0 4.0 25 111
+ 2.209712 3 4 tcp 1000 ------- 1 0.0 4.0 25 111
r 2.212912 0 3 tcp 1000 ------- 1 0.0 4.0 26 112
+ 2.212912 3 4 tcp 1000 ------- 1 0.0 4.0 26 112